LAMMPS (2 Aug 2023)
# Initialisation

variable T equal 300

units metal
atom_style full
boundary p p p
pair_style airebo 2.5 1 1

# System definition

#read_data cnt.data

# set pair_coeff
read_data carbon.data
Reading data file ...
  orthogonal box = (-20.965628 -19.438999 -40) to (59.034372 60.561001 40)
  1 by 1 by 1 MPI processor grid
  reading atoms ...
  680 atoms
  scanning bonds ...
  2 = max bonds/atom
  scanning angles ...
  3 = max angles/atom
  scanning dihedrals ...
  8 = max dihedrals/atom
  scanning impropers ...
  2 = max impropers/atom
  reading bonds ...
  983 bonds
  reading angles ...
  1894 angles
  reading dihedrals ...
  3665 dihedrals
  reading impropers ...
  608 impropers
Finding 1-2 1-3 1-4 neighbors ...
  special bond factors lj:    0        0        0       
  special bond factors coul:  0        0        0       
     3 = max # of 1-2 neighbors
     6 = max # of 1-3 neighbors
    18 = max # of 1-4 neighbors
    18 = max # of special neighbors
  special bonds CPU = 0.001 seconds
  read_data CPU = 0.032 seconds
pair_coeff * * CH.airebo C
Reading airebo potential file CH.airebo with DATE: 2011-10-25

# Simulation settings

group gcar type 1
680 atoms in group gcar
variable zmax equal bound(gcar,zmax)
variable zmin equal bound(gcar,zmin)
region rtop block INF INF INF INF ${zmax} INF
region rtop block INF INF INF INF 0 INF
region rbot block INF INF INF INF INF ${zmin}
region rbot block INF INF INF INF INF 0
region rmid block INF INF INF INF ${zmin} ${zmax}
region rmid block INF INF INF INF 0 ${zmax}
region rmid block INF INF INF INF 0 0

group gtop region rtop
680 atoms in group gtop
group gbot region rbot
680 atoms in group gbot
group gmid region rmid
680 atoms in group gmid

velocity gmid create ${T} 48455 mom yes rot yes
velocity gmid create 300 48455 mom yes rot yes
fix mynve all nve
compute Tmid gmid temp
fix myber gmid temp/berendsen ${T} ${T} 0.1
fix myber gmid temp/berendsen 300 ${T} 0.1
fix myber gmid temp/berendsen 300 300 0.1
fix_modify myber temp Tmid

# change below
fix mysf1 gbot setforce NULL NULL 0
fix mysf2 gtop setforce NULL NULL 0
velocity gbot set NULL NULL 0
velocity gtop set NULL NULL 0

variable pos equal xcm(gtop,z)
fix at1 all ave/time 10 100 1000 v_pos file cnt_deflection.dat
fix at2 all ave/time 10 100 1000 f_mysf1[1] f_mysf2[1] file force.dat
dump mydmp all atom 1000 dump.lammpstrj

thermo 100
thermo_modify temp Tmid
WARNING: Temperature for thermo pressure is not for group all (src/thermo.cpp:527)

# Run
timestep 0.0005
run 5000
WARNING: Using a manybody potential with bonds/angles/dihedrals and special_bond exclusions (src/pair.cpp:242)
WARNING: Bonds are defined but no bond style is set (src/force.cpp:193)
WARNING: Likewise 1-2 special neighbor interactions != 1.0 (src/force.cpp:195)
WARNING: Angles are defined but no angle style is set (src/force.cpp:198)
WARNING: Likewise 1-3 special neighbor interactions != 1.0 (src/force.cpp:200)
WARNING: Dihedrals are defined but no dihedral style is set (src/force.cpp:203)
WARNING: Likewise 1-4 special neighbor interactions != 1.0 (src/force.cpp:205)
WARNING: Impropers are defined but no improper style is set (src/force.cpp:208)
Neighbor list info ...
  update: every = 1 steps, delay = 0 steps, check = yes
  max neighbors/atom: 2000, page size: 100000
  master list distance cutoff = 10.5
  ghost atom cutoff = 10.5
  binsize = 5.25, bins = 16 16 16
  1 neighbor lists, perpetual/occasional/extra = 1 0 0
  (1) pair airebo, perpetual
      attributes: full, newton on, ghost
      pair build: full/bin/ghost
      stencil: full/ghost/bin/3d
      bin: standard
Per MPI rank memory allocation (min/avg/max) = 12.17 | 12.17 | 12.17 Mbytes
   Step          Temp          E_pair         E_mol          TotEng         Press     
         0   202.77563     -9.6679489      0              8.1291897     -12.405798    
       100   241.01687     -9.7281022      0              11.425379      1.85577      
       200   260.6046      -9.3288642      0              13.543786      14.354828    
       300   923.83751     -74.321212      0              6.7618246      75.5