ITEM: TIMESTEP
0
ITEM: NUMBER OF ATOMS
1600
ITEM: BOX BOUNDS pp pp pp
-3.0000000000000000e+01 3.0000000000000000e+01
-3.0000000000000000e+01 3.0000000000000000e+01
-5.0000000000000000e-01 5.0000000000000000e-01
ITEM: ATOMS id type xs ys zs
429 1 0.0170177 0.0160812 0.5
1222 1 0.0129722 0.0229877 0.5
1363 1 0.035879 0.0177913 0.5
1253 1 0.0599156 0.000924135 0.5
541 1 0.0856193 0.00310068 0.5
657 1 0.084252 0.0229787 0.5
431 1 0.0959728 0.0146339 0.5
558 1 0.0980553 0.016106 0.5
577 1 0.139823 0.0096144 0.5
1059 1 0.17225 0.00187442 0.5
635 1 0.198489 0.00859403 0.5
1332 1 0.199798 0.0125564 0.5
1055 1 0.253467 0.0213125 0.5
1323 1 0.249957 0.022674 0.5
987 1 0.283573 0.00761341 0.5
1488 1 0.266318 0.00715896 0.5
42 1 0.322187 0.00293706 0.5
449 1 0.31237 0.00163664 0.5
764 1 0.415721 0.0223444 0.5
1506 2 0.465402 0.00935346 0.5
1449 1 0.48813 0.00395751 0.5
1325 1 0.520677 0.0144425 0.5
1494 1 0.528055 0.0210564 0.5
1538 2 0.548581 0.00675591 0.5
480 1 0.618493 0.00673033 0.5
1182 1 0.607545 0.00873426 0.5
1212 1 0.611353 0.00267822 0.5
266 1 0.686441 0.0187618 0.5
598 1 0.69013 0.00763692 0.5
794 1 0.699649 0.00305851 0.5
1018 1 0.70798 0.0132123 0.5
694 1 0.771882 0.0179767 0.5
366 1 0.806629 0.0199056 0.5
1383 1 0.791992 0.0100405 0.5
248 1 0.830072 0.0223358 0.5
1438 1 0.814364 0.0220818 0.5
160 1 0.852562 0.00824223 0.5
399 1 0.851789 0.0105369 0.5
10 1 0.894508 0.0026232 0.5
149 1 0.905932 0.00510887 0.5
1178 1 0.91337 0.00925612 0.5
692 1 0.947344 0.00933947 0.5
1043 1 0.973643 0.0140151 0.5
1072 1 0.975249 0.00309295 0.5
89 1 0.982151 0.00421545 0.5
1111 1 0.0503381 0.0329275 0.5
1563 2 0.0913919 0.0239159 0.5
597 1 0.102817 0.0439014 0.5
1493 1 0.12251 0.0256123 0.5
1116 1 0.214497 0.0471906 0.5
1394 1 0.24728 0.0412584 0.5
128 1 0.268878 0.0309256 0.5
824 1 0.294463 0.0450714 0.5
459 1 0.379547 0.0406237 0.5
1076 1 0.357294 0.0335103 0.5
16 1 0.402335 0.0384195 0.5
119 1 0.386686 0.0384773 0.5
1148 1 0.402811 0.0375324 0.5
1106 1 0.408224 0.0253596 0.5
1257 1 0.416912 0.0330167 0.5
57 1 0.450945 0.0307273 0.5
1193 1 0.440414 0.0298419 0.5
1310 1 0.479088 0.0367629 0.5
801 1 0.567088 0.0463223 0.5
1258 1 0.565957 0.0362905 0.5
1251 1 0.572681 0.0417606 0.5
688 1 0.615817 0.0353169 0.5
486 1 0.627597 0.0254055 0.5
1358 1 0.6298 0.0463782 0.5
141 1 0.705898 0.0338262 0.5
1408 1 0.698997 0.0363351 0.5
1052 1 0.727615 0.0315128 0.5
108 1 0.746596 0.0457346 0.5
789 1 0.764208 0.0417436 0.5
1435 1 0.778308 0.0289632 0.5
690 1 0.852683 0.039639 0.5
665 1 0.868926 0.0348252 0.5
827 1 0.872496 0.0451473 0.5
593 1 0.906826 0.0245924 0.5
1123 1 0.940801 0.0413224 0.5
1175 1 0.938719 0.04356 0.5
757 1 0.964183 0.0313805 0.5
796 1 0.0248141 0.0506807 0.5
580 1 0.0646189 0.0496172 0.5
1425 1 0.082885 0.0481552 0.5
432 1 0.103948 0.0615717 0.5
46 1 0.133816 0.0534659 0.5
1475 1 0.159877 0.0512048 0.5
923 1 0.19873 0.0529643 0.5
1051 1 0.256325 0.0516624 0.5
1161 1 0.244664 0.069241 0.5
579 1 0.278221 0.0542992 0.5
637 1 0.265845 0.0510128 0.5
276 1 0.303091 0.055015 0.5
532 1 0.288217 0.0547425 0.5
678 1 0.294821 0.0529994 0.5
1250 1 0.291489 0.0539186 0.5
847 1 0.351048 0.0670285 0.5
84 1 0.37211 0.0511508 0.5
337 1 0.375561 0.051309 0.5
774 1 0.434941 0.0481519 0.5
500 1 0.45291 0.0629284 0.5
1001 1 0.527462 0.0601545 0.5
220 1 0.594101 0.0601467 0.5
1105 1 0.584284 0.0574297 0.5
1436 1 0.60844 0.0540996 0.5
107 1 0.642712 0.06104 0.5
553 1 0.62635 0.0662712 0.5
849 1 0.726546 0.0572149 0.5
1068 1 0.762127 0.067609 0.5
1550 2 0.767006 0.066585 0.5
388 1 0.829956 0.0637791 0.5
521 1 0.835251 0.0665025 0.5
1130 1 0.950976 0.0545501 0.5
221 1 0.967636 0.0646912 0.5
259 1 0.975906 0.0525567 0.5
845 1 0.955142 0.0632154 0.5
176 1 0.987033 0.0652624 0.5
1567 2 0.999528 0.0694226 0.5
1598 2 0.983939 0.0584126 0.5
551 1 0.0214836 0.0743199 0.5
1592 2 0.0197584 0.0788896 0.5
23 1 0.0623004 0.0831812 0.5
748 1 0.0670604 0.083866 0.5
40 1 0.0805664 0.0797313 0.5
578 1 0.11579 0.0761634 0.5
1465 1 0.135841 0.087724 0.5
491 1 0.158629 0.0793605 0.5
1074 1 0.162021 0.0825097 0.5
115 1 0.185701 0.0723029 0.5
496 1 0.17517 0.077882 0.5
1441 1 0.236812 0.0938884 0.5
1010 1 0.254304 0.0902913 0.5
1215 1 0.256267 0.0860137 0.5
430 1 0.264181 0.0868163 0.5
187 1 0.298393 0.0888197 0.5
343 1 0.296607 0.0726039 0.5
495 1 0.315945 0.0830769 0.5
300 1 0.393115 0.0889869 0.5
384 1 0.394364 0.0807102 0.5
1525 2 0.395019 0.0868628 0.5
616 1 0.420663 0.0904182 0.5
795 1 0.477841 0.0723145 0.5
436 1 0.501522 0.0790753 0.5
747 1 0.508721 0.0798781 0.5
197 1 0.526512 0.0854156 0.5
618 1 0.704711 0.0860232 0.5
1073 1 0.697274 0.0858908 0.5
409 1 0.77498 0.0829687 0.5
634 1 0.92462 0.091786 0.5
919 1 0.97323 0.0841721 0.5
422 1 0.987987 0.089143 0.5
230 1 0.00821655 0.0956203 0.5
1266 1 0.0196417 0.117985 0.5
1486 1 0.00899123 0.115623 0.5
516 1 0.0411793 0.100978 0.5
1208 1 0.0574228 0.105376 0.5
7 1 0.0927653 0.105616 0.5
126 1 0.101333 0.101388 0.5
1424 1 0.105558 0.116845 0.5
229 1 0.128881 0.105245 0.5
413 1 0.119956 0.0992839 0.5
1400 1 0.142388 0.116552 0.5
445 1 0.145778 0.0959011 0.5
302 1 0.167258 0.108252 0.5
811 1 0.189868 0.117063 0.5
1562 2 0.181835 0.105776 0.5
372 1 0.230921 0.0965314 0.5
641 1 0.263468 0.114264 0.5
356 1 0.327548 0.100178 0.5
497 1 0.368246 0.110193 0.5
902 1 0.366521 0.113682 0.5
1526 2 0.432564 0.0961882 0.5
1327 1 0.458149 0.105231 0.5
36 1 0.554299 0.10377 0.5
1564 2 0.598864 0.103595 0.5
1576 2 0.596722 0.106718 0.5
74 1 0.650152 0.112396 0.5
255 1 0.733213 0.103368 0.5
201 1 0.768733 0.0958956 0.5
706 1 0.799912 0.118816 0.5
921 1 0.813536 0.103048 0.5
1086 1 0.877141 0.111099 0.5
1237 1 0.877974 0.112012 0.5
342 1 0.888683 0.097796 0.5
463 1 0.924859 0.101697 0.5
733 1 0.94015 0.100622 0.5
1035 1 0.94497 0.114117 0.5
116 1 0.00322112 0.13736 0.5
1002 1 0.0210707 0.135461 0.5
142 1 0.040705 0.128842 0.5
768 1 0.0379091 0.138719 0.5
866 1 0.0259496 0.134586 0.5
489 1 0.108653 0.132359 0.5
856 1 0.106273 0.127168 0.5
1233 1 0.121564 0.121037 0.5
1195 1 0.164404 0.135387 0.5
1254 1 0.158989 0.120637 0.5
555 1 0.169342 0.131755 0.5
652 1 0.225747 0.134432 0.5
672 1 0.289886 0.121629 0.5
1029 1 0.297384 0.134157 0.5
174 1 0.368188 0.141155 0.5
272 1 0.381456 0.126421 0.5
954 1 0.391393 0.136476 0.5
412 1 0.424771 0.128817 0.5
620 1 0.406326 0.127826 0.5
770 1 0.417274 0.122801 0.5
1204 1 0.409718 0.125755 0.5
1597 2 0.447321 0.13176 0.5
1225 1 0.474037 0.132357 0.5
319 1 0.494087 0.12738 0.5
237 1 0.533 0.13392 0.5
899 1 0.569652 0.13515 0.5
1079 1 0.550552 0.134133 0.5
1186 1 0.596306 0.11939 0.5
1588 2 0.608861 0.135226 0.5
398 1 0.62338 0.140672 0.5
995 1 0.625581 0.131701 0.5
1596 2 0.656283 0.140795 0.5
1288 1 0.741425 0.132597 0.5
251 1 0.813657 0.129006 0.5
610 1 0.832875 0.123649 0.5
1329 1 0.836385 0.129182 0.5
1414 1 0.834184 0.133684 0.5
1146 1 0.868276 0.121094 0.5
148 1 0.937713 0.138289 0.5
273 1 0.934975 0.131424 0.5
888 1 0.952408 0.120565 0.5
181 1 0.976684 0.119948 0.5
186 1 0.0546895 0.166169 0.5
443 1 0.051297 0.147876 0.5
1509 2 0.0741451 0.15705 0.5
428 1 0.110558 0.143461 0.5
732 1 0.125612 0.161402 0.5
1061 1 0.174342 0.157706 0.5
949 1 0.207839 0.147172 0.5
777 1 0.219502 0.164906 0.5
1121 1 0.226165 0.154748 0.5
214 1 0.257581 0.165195 0.5
143 1 0.266684 0.163365 0.5
1372 1 0.298635 0.162132 0.5
1226 1 0.351887 0.157741 0.5
1529 2 0.399247 0.151329 0.5
8 1 0.438398 0.162966 0.5
1015 1 0.568404 0.165051 0.5
296 1 0.578102 0.162926 0.5
253 1 0.63058 0.163451 0.5
943 1 0.648371 0.165851 0.5
54 1 0.757253 0.154488 0.5
857 1 0.74351 0.164655 0.5
393 1 0.802949 0.160369 0.5
1030 1 0.808184 0.147285 0.5
1558 2 0.799974 0.164262 0.5
663 1 0.852749 0.153261 0.5
1362 1 0.864769 0.166659 0.5
1026 1 0.897254 0.152054 0.5
1595 2 0.916473 0.157685 0.5
1487 1 0.98692 0.162547 0.5
1566 2 0.989894 0.150671 0.5
965 1 0.0106018 0.184772 0.5
246 1 0.083607 0.183207 0.5
437 1 0.108834 0.169843 0.5
1593 2 0.148044 0.175414 0.5
100 1 0.169225 0.169692 0.5
1103 1 0.22456 0.179217 0.5
525 1 0.241755 0.16928 0.5
881 1 0.249252 0.17359 0.5
1083 1 0.251691 0.16902 0.5
714 1 0.282928 0.177437 0.5
1573 2 0.312439 0.169855 0.5
451 1 0.362479 0.188616 0.5
684 1 0.385981 0.188321 0.5
465 1 0.436496 0.180054 0.5
1521 2 0.437447 0.169671 0.5
1050 1 0.517354 0.171013 0.5
1391 1 0.598451 0.168727 0.5
1533 2 0.620586 0.181455 0.5
41 1 0.644682 0.176443 0.5
573 1 0.687463 0.188877 0.5
262 1 0.71971 0.169495 0.5
503 1 0.753447 0.183131 0.5
1057 1 0.866137 0.172232 0.5
386 1 0.898684 0.189925 0.5
1411 1 0.89916 0.177956 0.5
49 1 0.908383 0.189436 0.5
203 1 0.959848 0.173596 0.5
1141 1 0.976211 0.182679 0.5
177 1 0.0098288 0.192632 0.5
790 1 0.0443387 0.200177 0.5
589 1 0.0526099 0.214206 0.5
738 1 0.0522524 0.206521 0.5
1097 1 0.0543349 0.206037 0.5
96 1 0.108836 0.212152 0.5
1355 1 0.10717 0.200771 0.5
1469 1 0.164527 0.202628 0.5
648 1 0.172202 0.190883 0.5
1456 1 0.188208 0.206321 0.5
1206 1 0.248598 0.192529 0.5
1409 1 0.253299 0.199006 0.5
121 1 0.275017 0.206758 0.5
1132 1 0.28769 0.201773 0.5
1315 1 0.301731 0.194237 0.5
1431 1 0.319046 0.205037 0.5
162 1 0.338859 0.202844 0.5
172 1 0.369501 0.198916 0.5
798 1 0.378663 0.192796 0.5
132 1 0.389909 0.198518 0.5
673 1 0.403415 0.200182 0.5
1377 1 0.382353 0.213595 0.5
99 1 0.433819 0.194319 0.5
137 1 0.432689 0.201967 0.5
147 1 0.477254 0.207066 0.5
1256 1 0.477967 0.192353 0.5
1219 1 0.583816 0.193048 0.5
252 1 0.618505 0.207665 0.5
1038 1 0.662415 0.206455 0.5
1164 1 0.661106 0.201131 0.5
895 1 0.679312 0.198168 0.5
848 1 0.700553 0.202165 0.5
31 1 0.732504 0.192949 0.5
900 1 0.71638 0.203176 0.5
1297 1 0.736431 0.194059 0.5
131 1 0.74018 0.203493 0.5
213 1 0.741667 0.204712 0.5
1133 1 0.791468 0.203301 0.5
279 1 0.812471 0.204439 0.5
1304 1 0.816933 0.200568 0.5
941 1 0.840376 0.202568 0.5
1005 1 0.860665 0.195355 0.5
196 1 0.895472 0.20435 0.5
1262 1 0.882562 0.211461 0.5
21 1 0.972999 0.200148 0.5
28 1 0.961754 0.205344 0.5
1120 1 0.0160785 0.231547 0.5
1502 2 0.000549172 0.229935 0.5
130 1 0.0599295 0.235606 0.5
676 1 0.0734354 0.228426 0.5
1100 1 0.0811104 0.221737 0.5
594 1 0.0999118 0.217485 0.5
854 1 0.11086 0.228112 0.5
1220 1 0.110979 0.229745 0.5
1356 1 0.105268 0.236039 0.5
484 1 0.139538 0.22325 0.5
1241 1 0.159055 0.230784 0.5
680 1 0.169824 0.224667 0.5
1143 1 0.210223 0.217368 0.5
833 1 0.220993 0.224635 0.5
917 1 0.254847 0.219281 0.5
934 1 0.283466 0.217644 0.5
1284 1 0.278409 0.224699 0.5
946 1 0.303517 0.215431 0.5
560 1 0.333683 0.216225 0.5
731 1 0.339158 0.226731 0.5
1584 2 0.344156 0.236544 0.5
267 1 0.403833 0.220436 0.5
1519 2 0.418351 0.224277 0.5
287 1 0.486716 0.228528 0.5
311 1 0.542525 0.223415 0.5
510 1 0.574358 0.227013 0.5
1271 1 0.581199 0.21862 0.5
1517 2 0.612913 0.223825 0.5
5 1 0.623861 0.234069 0.5
365 1 0.66313 0.225246 0.5
600 1 0.665688 0.221965 0.5
756 1 0.685859 0.223881 0.5
758 1 0.688238 0.21435 0.5
1479 1 0.683777 0.232168 0.5
215 1 0.69633 0.214358 0.5
280 1 0.699127 0.235561 0.5
861 1 0.731316 0.224382 0.5
1518 2 0.7356 0.226784 0.5
784 1 0.766956 0.225728 0.5
330 1 0.790459 0.236187 0.5
743 1 0.826157 0.225376 0.5
194 1 0.844661 0.222062 0.5
915 1 0.845851 0.220103 0.5
245 1 0.872448 0.226329 0.5
389 1 0.881789 0.221285 0.5
58 1 0.91969 0.232042 0.5
308 1 0.924986 0.234617 0.5
1437 1 0.943252 0.229602 0.5
1547 2 0.94105 0.223632 0.5
697 1 0.971275 0.226335 0.5
631 1 0.019292 0.240796 0.5
1577 2 0.0527904 0.247652 0.5
602 1 0.115681 0.244449 0.5
1013 1 0.13484 0.255403 0.5
154 1 0.161317 0.25271 0.5
440 1 0.157449 0.244523 0.5
964 1 0.153224 0.243756 0.5
111 1 0.169527 0.242103 0.5
571 1 0.195648 0.253318 0.5
232 1 0.231228 0.254312 0.5
367 1 0.225933 0.261685 0.5
563 1 0.245388 0.239018 0.5
66 1 0.346953 0.239801 0.5
310 1 0.383546 0.249311 0.5
321 1 0.381998 0.239531 0.5
903 1 0.407048 0.255833 0.5
1328 1 0.413236 0.254358 0.5
325 1 0.440307 0.244647 0.5
1017 1 0.504209 0.244403 0.5
728 1 0.546098 0.261599 0.5
123 1 0.566089 0.256757 0.5
327 1 0.574002 0.258428 0.5
740 1 0.617674 0.250305 0.5
1006 1 0.613867 0.255892 0.5
1301 1 0.605418 0.256792 0.5
1173 1 0.622851 0.249643 0.5
60 1 0.643377 0.240429 0.5
285 1 0.663607 0.247314 0.5
1316 1 0.652303 0.249506 0.5
1293 1 0.672354 0.248536 0.5
173 1 0.691096 0.248934 0.5
1063 1 0.70847 0.256492 0.5
75 1 0.750536 0.252835 0.5
1037 1 0.780166 0.252083 0.5
1155 1 0.787186 0.242849 0.5
161 1 0.821637 0.249934 0.5
1500 1 0.817472 0.246904 0.5
1537 2 0.810331 0.241302 0.5
504 1 0.837583 0.256874 0.5
153 1 0.895594 0.250727 0.5
120 1 0.909338 0.250594 0.5
345 1 0.920822 0.259081 0.5
1090 1 0.914991 0.253544 0.5
1553 2 0.91874 0.255981 0.5
650 1 0.966577 0.25344 0.5
55 1 0.999063 0.254143 0.5
958 1 0.110864 0.285707 0.5
927 1 0.122941 0.270795 0.5
1433 1 0.129844 0.280723 0.5
304 1 0.144539 0.262709 0.5
329 1 0.18839 0.270704 0.5
76 1 0.230931 0.263742 0.5
1185 1 0.220996 0.271538 0.5
531 1 0.253899 0.276333 0.5
34 1 0.262943 0.279608 0.5
1091 1 0.317027 0.270354 0.5
1348 1 0.367899 0.272261 0.5
951 1 0.391104 0.277561 0.5
1150 1 0.396161 0.282004 0.5
190 1 0.429421 0.275999 0.5
1169 1 0.429004 0.277417 0.5
1066 1 0.45447 0.273322 0.5
223 1 0.541993 0.272013 0.5
1000 1 0.534972 0.273883 0.5
893 1 0.563532 0.279541 0.5
326 1 0.580726 0.264775 0.5
501 1 0.655101 0.279692 0.5
1470 1 0.662241 0.283322 0.5
425 1 0.678066 0.263131 0.5
668 1 0.693239 0.266746 0.5
716 1 0.753334 0.285033 0.5
282 1 0.777371 0.272322 0.5
168 1 0.794328 0.269817 0.5
649 1 0.811404 0.266284 0.5
1407 1 0.812118 0.270424 0.5
1044 1 0.855791 0.278955 0.5
374 1 0.938018 0.274853 0.5
1300 1 0.0130483 0.303562 0.5
452 1 0.060112 0.30222 0.5
1137 1 0.0652281 0.288614 0.5
633 1 0.125204 0.295375 0.5
392 1 0.151978 0.298835 0.5
175 1 0.207075 0.303622 0.5
391 1 0.2088 0.297104 0.5
953 1 0.223198 0.286594 0.5
838 1 0.255031 0.307363 0.5
897 1 0.314469 0.286705 0.5
18 1 0.342673 0.29702 0.5
22 1 0.358797 0.301374 0.5
50 1 0.366888 0.285776 0.5
97 1 0.380752 0.299157 0.5
874 1 0.375278 0.298214 0.5
1142 1 0.425138 0.300668 0.5
986 1 0.432279 0.306114 0.5
1582 2 0.455424 0.30452 0.5
942 1 0.494871 0.302173 0.5
884 1 0.504986 0.297785 0.5
1289 1 0.519206 0.291005 0.5
858 1 0.571386 0.289565 0.5
1439 1 0.555797 0.286538 0.5
1476 1 0.598637 0.30023 0.5
763 1 0.635764 0.286132 0.5
1314 1 0.633088 0.305437 0.5
679 1 0.661944 0.292697 0.5
166 1 0.669085 0.303941 0.5
204 1 0.730487 0.300739 0.5
1404 1 0.735843 0.304909 0.5
53 1 0.738341 0.305237 0.5
534 1 0.832766 0.297788 0.5
324 1 0.860017 0.306544 0.5
408 1 0.862456 0.292558 0.5
707 1 0.861385 0.294093 0.5
868 1 0.867157 0.302464 0.5
1268 1 0.869299 0.308787 0.5
1021 1 0.929094 0.286814 0.5
470 1 0.959856 0.294396 0.5
562 1 0.959023 0.293256 0.5
896 1 0.972588 0.287657 0.5
722 1 0.0215572 0.311614 0.5
1234 1 0.0156074 0.313264 0.5
1009 1 0.033101 0.329327 0.5
725 1 0.0607676 0.320895 0.5
164 1 0.0971806 0.314671 0.5
813 1 0.109556 0.30988 0.5
83 1 0.156443 0.332115 0.5
188 1 0.153526 0.319227 0.5
488 1 0.154716 0.319647 0.5
1243 1 0.18167 0.330029 0.5
546 1 0.240634 0.33196 0.5
659 1 0.309831 0.321221 0.5
990 1 0.343387 0.31254 0.5
537 1 0.369865 0.315709 0.5
1357 1 0.402173 0.314483 0.5
960 1 0.426925 0.328499 0.5
1004 1 0.411752 0.309535 0.5
1524 2 0.475714 0.330859 0.5
1065 1 0.508141 0.324199 0.5
905 1 0.572399 0.316097 0.5
1342 1 0.601674 0.332736 0.5
753 1 0.640943 0.329305 0.5
853 1 0.640526 0.322662 0.5
936 1 0.633625 0.333044 0.5
910 1 0.647726 0.329514 0.5
289 1 0.670156 0.319515 0.5
826 1 0.71252 0.330941 0.5
241 1 0.7647 0.309888 0.5
1340 1 0.782431 0.323316 0.5
1443 1 0.791475 0.316541 0.5
817 1 0.817595 0.317926 0.5
469 1 0.892564 0.32228 0.5
617 1 0.893516 0.329804 0.5
1336 1 0.92041 0.322648 0.5
1170 1 0.942603 0.327884 0.5
396 1 0.972233 0.317029 0.5
65 1 0.0454181 0.34178 0.5
113 1 0.0576162 0.355455 0.5
664 1 0.0647556 0.346797 0.5
1007 1 0.0587461 0.345225 0.5
274 1 0.0889122 0.347654 0.5
456 1 0.0727282 0.342418 0.5
1442 1 0.162869 0.338766 0.5
11 1 0.191191 0.349415 0.5
461 1 0.236886 0.346381 0.5
1094 1 0.226771 0.334467 0.5
570 1 0.240873 0.350472 0.5
901 1 0.251404 0.341802 0.5
244 1 0.283474 0.345551 0.5
981 1 0.333037 0.354742 0.5
829 1 0.37052 0.33519 0.5
1275 1 0.416395 0.345856 0.5
1405 1 0.461614 0.341769 0.5
699 1 0.513616 0.338564 0.5
505 1 0.530217 0.350843 0.5
582 1 0.587336 0.349896 0.5
1092 1 0.580731 0.352352 0.5
1196 1 0.583647 0.354776 0.5
435 1 0.608458 0.35507 0.5
1126 1 0.59858 0.334002 0.5
1489 1 0.596617 0.344517 0.5
1571 2 0.598938 0.350304 0.5
416 1 0.675513 0.342046 0.5
572 1 0.680749 0.350609 0.5
502 1 0.731502 0.353576 0.5
709 1 0.751136 0.335163 0.5
1071 1 0.744056 0.35282 0.5
460 1 0.773151 0.350977 0.5
62 1 0.80296 0.353547 0.5
373 1 0.787728 0.338139 0.5
1338 1 0.837172 0.351011 0.5
656 1 0.924159 0.340057 0.5
1179 1 0.941592 0.341266 0.5
642 1 0.986633 0.343671 0.5
793 1 0.0044255 0.379325 0.5
1480 1 0.0574388 0.37425 0.5
1581 2 0.0567249 0.375988 0.5
1075 1 0.0715399 0.371683 0.5
184 1 0.115272 0.379517 0.5
846 1 0.102361 0.375633 0.5
974 1 0.0956969 0.377776 0.5
1139 1 0.103074 0.362907 0.5
1194 1 0.154719 0.359866 0.5
865 1 0.175305 0.358509 0.5
1599 2 0.195417 0.37399 0.5
400 1 0.237959 0.374141 0.5
1012 1 0.21993 0.362035 0.5
80 1 0.278121 0.373672 0.5
878 1 0.299123 0.360395 0.5
1156 1 0.302515 0.36244 0.5
1308 1 0.297219 0.363466 0.5
932 1 0.350411 0.363083 0.5
15 1 0.378792 0.359464 0.5
1450 1 0.358563 0.373264 0.5
788 1 0.45281 0.378169 0.5
972 1 0.454713 0.360353 0.5
1451 1 0.461853 0.371418 0.5
71 1 0.497433 0.363287 0.5
1373 1 0.499516 0.366888 0.5
988 1 0.507906 0.378895 0.5
646 1 0.549554 0.360612 0.5
127 1 0.617979 0.375599 0.5
134 1 0.636244 0.359885 0.5
228 1 0.664923 0.361769 0.5
1286 1 0.720674 0.363075 0.5
1152 1 0.787194 0.365105 0.5
1542 2 0.826165 0.361649 0.5
1098 1 0.843302 0.374104 0.5
295 1 0.878227 0.369298 0.5
466 1 0.893043 0.368484 0.5
317 1 0.921662 0.37238 0.5
1463 1 0.918508 0.361744 0.5
615 1 0.933383 0.361797 0.5
622 1 0.972653 0.379294 0.5
675 1 0.965037 0.374783 0.5
962 1 0.956468 0.363547 0.5
1160 1 0.973724 0.371702 0.5
78 1 0.00103428 0.383078 0.5
17 1 0.0397686 0.390194 0.5
797 1 0.0257275 0.402472 0.5
322 1 0.0837978 0.390187 0.5
1127 1 0.0887964 0.401878 0.5
88 1 0.118606 0.403713 0.5
568 1 0.139132 0.394868 0.5
908 1 0.158291 0.39906 0.5
247 1 0.203569 0.386308 0.5
1188 1 0.215886 0.392248 0.5
1331 1 0.227845 0.383906 0.5
819 1 0.2545 0.386273 0.5
693 1 0.284905 0.404702 0.5
894 1 0.273898 0.401863 0.5
77 1 0.295436 0.398207 0.5
1594 2 0.312393 0.384424 0.5
146 1 0.350651 0.398978 0.5
269 1 0.355173 0.395527 0.5
1048 1 0.342083 0.383797 0.5
533 1 0.374986 0.390329 0.5
948 1 0.451502 0.399893 0.5
1393 1 0.444481 0.386689 0.5
163 1 0.468399 0.386018 0.5
945 1 0.463937 0.39082 0.5
35 1 0.519569 0.397952 0.5
1403 1 0.53129 0.398099 0.5
1181 1 0.55146 0.394967 0.5
535 1 0.590908 0.384825 0.5
1163 1 0.625239 0.398706 0.5
1575 2 0.743345 0.397344 0.5
33 1 0.80207 0.394014 0.5
1344 1 0.818016 0.391437 0.5
830 1 0.85794 0.397188 0.5
930 1 0.873766 0.384056 0.5
257 1 0.898518 0.396397 0.5
352 1 0.984791 0.387571 0.5
1032 1 0.98134 0.386184 0.5
1303 1 0.989849 0.388069 0.5
12 1 0.0231692 0.405158 0.5
786 1 0.0155536 0.409084 0.5
842 1 0.00912855 0.423525 0.5
70 1 0.0824905 0.417467 0.5
799 1 0.113728 0.418598 0.5
1283 1 0.126163 0.426618 0.5
212 1 0.148178 0.420118 0.5
1151 1 0.180307 0.417347 0.5
513 1 0.21196 0.405953 0.5
982 1 0.20119 0.405363 0.5
1041 1 0.225586 0.42265 0.5
1280 1 0.216125 0.412662 0.5
687 1 0.253313 0.423881 0.5
475 1 0.30942 0.424616 0.5
1392 1 0.297937 0.42178 0.5
316 1 0.356544 0.428196 0.5
335 1 0.401227 0.418305 0.5
592 1 0.41985 0.421257 0.5
966 1 0.426454 0.418982 0.5
462 1 0.460606 0.412628 0.5
1311 1 0.467746 0.407163 0.5
1158 1 0.498031 0.405121 0.5
1211 1 0.54688 0.414384 0.5
539 1 0.547773 0.425493 0.5
1244 1 0.57419 0.416227 0.5
360 1 0.603226 0.427565 0.5
519 1 0.606677 0.418801 0.5
256 1 0.635475 0.427546 0.5
956 1 0.625479 0.41908 0.5
1586 2 0.638033 0.419991 0.5
101 1 0.645708 0.407213 0.5
1302 1 0.664569 0.412899 0.5
72 1 0.68938 0.417451 0.5
271 1 0.703898 0.416009 0.5
685 1 0.711633 0.409044 0.5
619 1 0.729126 0.424497 0.5
1295 1 0.719189 0.410497 0.5
210 1 0.75828 0.414348 0.5
1174 1 0.759589 0.407917 0.5
202 1 0.771727 0.414167 0.5
818 1 0.770002 0.426563 0.5
1003 1 0.780056 0.405905 0.5
1201 1 0.776367 0.408046 0.5
1585 2 0.775118 0.407494 0.5
1600 2 0.768275 0.405118 0.5
565 1 0.810163 0.412625 0.5
719 1 0.824978 0.410669 0.5
1089 1 0.813316 0.405887 0.5
1307 1 0.831225 0.404825 0.5
924 1 0.844256 0.407008 0.5
1019 1 0.869067 0.412014 0.5
586 1 0.911847 0.407371 0.5
1248 1 0.975273 0.420653 0.5
320 1 0.983067 0.413523 0.5
312 1 0.0238255 0.435651 0.5
1147 1 0.0288831 0.438294 0.5
727 1 0.0546456 0.429301 0.5
383 1 0.082968 0.442556 0.5
434 1 0.129258 0.441169 0.5
587 1 0.121047 0.435614 0.5
660 1 0.128842 0.4465 0.5
891 1 0.125748 0.446083 0.5
576 1 0.15401 0.446074 0.5
686 1 0.164303 0.44792 0.5
704 1 0.155377 0.42946 0.5
752 1 0.152939 0.44332 0.5
103 1 0.168409 0.441787 0.5
980 1 0.195242 0.432903 0.5
91 1 0.217673 0.433501 0.5
761 1 0.238022 0.440946 0.5
834 1 0.25361 0.42915 0.5
1587 2 0.258431 0.451739 0.5
712 1 0.27515 0.440967 0.5
169 1 0.2905 0.440548 0.5
200 1 0.308053 0.447836 0.5
564 1 0.314418 0.430516 0.5
1545 2 0.419316 0.441946 0.5
467 1 0.479946 0.449875 0.5
309 1 0.504222 0.451989 0.5
613 1 0.504161 0.42956 0.5
1249 1 0.508029 0.446379 0.5
1466 1 0.503447 0.437809 0.5
518 1 0.533019 0.443179 0.5
379 1 0.568598 0.433115 0.5
1313 1 0.585199 0.444995 0.5
1319 1 0.592815 0.445358 0.5
739 1 0.598051 0.442793 0.5
1477 1 0.610664 0.429865 0.5
338 1 0.620958 0.441736 0.5
920 1 0.634464 0.436944 0.5
1367 1 0.643152 0.449493 0.5
284 1 0.668438 0.432848 0.5
494 1 0.690393 0.435632 0.5
362 1 0.697295 0.444667 0.5
636 1 0.726748 0.447535 0.5
192 1 0.739778 0.450972 0.5
1236 1 0.807607 0.442681 0.5
1 1 0.8226 0.441064 0.5
1413 1 0.837236 0.433586 0.5
1337 1 0.899889 0.43164 0.5
1274 1 0.974085 0.444534 0.5
944 1 0.991875 0.440798 0.5
1554 2 0.0284086 0.46399 0.5
183 1 0.0482213 0.455795 0.5
1197 1 0.0628587 0.466153 0.5
104 1 0.0854688 0.474111 0.5
209 1 0.141814 0.471029 0.5
674 1 0.17198 0.465233 0.5
117 1 0.20643 0.474854 0.5
749 1 0.236239 0.464488 0.5
179 1 0.272236 0.464738 0.5
346 1 0.340897 0.457062 0.5
417 1 0.343872 0.45493 0.5
971 1 0.399147 0.456583 0.5
315 1 0.412475 0.461696 0.5
1084 1 0.417592 0.469901 0.5
1321 1 0.421637 0.456961 0.5
1468 1 0.41307 0.471763 0.5
524 1 0.623399 0.460606 0.5
975 1 0.641129 0.452512 0.5
340 1 0.670522 0.455475 0.5
536 1 0.677007 0.459025 0.5
1028 1 0.679863 0.464761 0.5
1036 1 0.686409 0.469867 0.5
599 1 0.692359 0.470087 0.5
773 1 0.703901 0.459367 0.5
852 1 0.711041 0.471629 0.5
769 1 0.730616 0.455237 0.5
1536 2 0.733531 0.463773 0.5
1140 1 0.753999 0.458889 0.5
448 1 0.821828 0.467879 0.5
1422 1 0.815343 0.462865 0.5
520 1 0.852649 0.474661 0.5
1455 1 0.874366 0.467378 0.5
336 1 0.881863 0.470178 0.5
1352 1 0.881268 0.468101 0.5
931 1 0.914409 0.466654 0.5
800 1 0.940707 0.464552 0.5
1024 1 0.958557 0.468773 0.5
850 1 0.0851123 0.483065 0.5
983 1 0.0864814 0.492606 0.5
401 1 0.118491 0.480109 0.5
669 1 0.177515 0.499781 0.5
38 1 0.204229 0.479098 0.5
155 1 0.203277 0.479127 0.5
305 1 0.206967 0.486425 0.5
59 1 0.239869 0.482087 0.5
140 1 0.248795 0.491296 0.5
1548 2 0.277057 0.497799 0.5
1485 1 0.318408 0.479585 0.5
862 1 0.34429 0.476835 0.5
1473 1 0.376599 0.495402 0.5
294 1 0.410869 0.480804 0.5
1551 2 0.445617 0.480291 0.5
1578 2 0.444725 0.496292 0.5
772 1 0.457695 0.476587 0.5
387 1 0.523324 0.499611 0.5
1095 1 0.515171 0.48421 0.5
724 1 0.540994 0.490782 0.5
1192 1 0.568662 0.495435 0.5
191 1 0.645475 0.494004 0.5
1119 1 0.654518 0.483379 0.5
1511 2 0.690336 0.48116 0.5
601 1 0.727048 0.49822 0.5
658 1 0.75418 0.495826 0.5
1081 1 0.814095 0.494621 0.5
1423 1 0.855685 0.490818 0.5
370 1 0.883886 0.477216 0.5
476 1 0.963318 0.491599 0.5
935 1 0.0146669 0.507223 0.5
1434 1 0.0432867 0.519079 0.5
4 1 0.0672042 0.50025 0.5
526 1 0.0705367 0.511007 0.5
705 1 0.0653005 0.506029 0.5
357 1 0.0801754 0.508594 0.5
492 1 0.108676 0.519373 0.5
208 1 0.129083 0.502132 0.5
1387 1 0.129143 0.508807 0.5
1341 1 0.151337 0.517494 0.5
439 1 0.189476 0.518315 0.5
1053 1 0.203041 0.511494 0.5
1534 2 0.201137 0.511779 0.5
677 1 0.218153 0.500546 0.5
808 1 0.351551 0.517433 0.5
916 1 0.353098 0.521046 0.5
1296 1 0.346374 0.508391 0.5
87 1 0.391178 0.521891 0.5
760 1 0.413251 0.513223 0.5
73 1 0.477807 0.506664 0.5
1113 1 0.481496 0.502528 0.5
1378 1 0.516362 0.502137 0.5
870 1 0.535938 0.505131 0.5
1540 2 0.559797 0.513555 0.5
397 1 0.592641 0.522163 0.5
92 1 0.597758 0.512219 0.5
363 1 0.621201 0.521857 0.5
1412 1 0.629054 0.50866 0.5
1555 2 0.628815 0.500815 0.5
350 1 0.66386 0.501845 0.5
52 1 0.671477 0.5161 0.5
182 1 0.674749 0.504961 0.5
239 1 0.680401 0.506651 0.5
1255 1 0.679748 0.518656 0.5
661 1 0.708247 0.514016 0.5
1306 1 0.730321 0.50894 0.5
1062 1 0.852057 0.5193 0.5
1504 2 0.888886 0.503597 0.5
1375 1 0.0368026 0.54062 0.5
1112 1 0.0557223 0.525166 0.5
1503 2 0.0694668 0.529282 0.5
426 1 0.094457 0.53837 0.5
1291 1 0.140212 0.538966 0.5
556 1 0.144377 0.536636 0.5
347 1 0.174423 0.523916 0.5
354 1 0.201258 0.546142 0.5
1223 1 0.195784 0.546256 0.5
478 1 0.216846 0.532585 0.5
741 1 0.233505 0.525782 0.5
455 1 0.249988 0.54564 0.5
277 1 0.264802 0.532953 0.5
226 1 0.294373 0.524541 0.5
453 1 0.329181 0.543334 0.5
464 1 0.385764 0.531536 0.5
776 1 0.391001 0.546298 0.5
1049 1 0.396474 0.542107 0.5
395 1 0.450619 0.545327 0.5
385 1 0.468409 0.543515 0.5
851 1 0.459126 0.524719 0.5
1447 1 0.500716 0.526206 0.5
918 1 0.533559 0.524131 0.5
1492 1 0.597818 0.527745 0.5
1346 1 0.6619 0.545631 0.5
63 1 0.67713 0.52532 0.5
1202 1 0.688316 0.529532 0.5
1312 1 0.684389 0.533658 0.5
828 1 0.779231 0.535959 0.5
1252 1 0.778993 0.527621 0.5
1259 1 0.906262 0.54322 0.5
265 1 0.929407 0.546549 0.5
604 1 0.980814 0.53946 0.5
938 1 0.00830343 0.555684 0.5
863 1 0.042991 0.549107 0.5
1353 1 0.0406116 0.558661 0.5
806 1 0.162227 0.548879 0.5
1462 1 0.207209 0.553915 0.5
691 1 0.227855 0.560876 0.5
1507 2 0.33775 0.566608 0.5
25 1 0.358098 0.556788 0.5
292 1 0.442171 0.560564 0.5
1122 1 0.450619 0.550868 0.5
1354 1 0.437708 0.563348 0.5
471 1 0.498635 0.565525 0.5
746 1 0.510297 0.569242 0.5
288 1 0.663269 0.566199 0.5
961 1 0.68576 0.569676 0.5
1290 1 0.698969 0.57123 0.5
1285 1 0.735798 0.548858 0.5
44 1 0.739487 0.553621 0.5
306 1 0.742878 0.549781 0.5
1402 1 0.770189 0.566393 0.5
1093 1 0.797558 0.553404 0.5
236 1 0.84135 0.56724 0.5
515 1 0.880024 0.562914 0.5
566 1 0.872586 0.548225 0.5
607 1 0.949519 0.566561 0.5
423 1 0.969808 0.563035 0.5
785 1 0.965405 0.568767 0.5
509 1 0.0318662 0.575729 0.5
530 1 0.0447188 0.588459 0.5
1218 1 0.0443621 0.594517 0.5
955 1 0.169845 0.591192 0.5
341 1 0.211375 0.572465 0.5
450 1 0.260164 0.579733 0.5
1189 1 0.259093 0.574935 0.5
715 1 0.329421 0.574439 0.5
490 1 0.352388 0.592493 0.5
507 1 0.431105 0.573786 0.5
778 1 0.480549 0.594086 0.5
1229 1 0.523627 0.59331 0.5
225 1 0.578543 0.578904 0.5
457 1 0.592466 0.582743 0.5
780 1 0.593597 0.577943 0.5
1389 1 0.602581 0.575153 0.5
1330 1 0.630307 0.573215 0.5
529 1 0.660117 0.582595 0.5
231 1 0.683679 0.592528 0.5
643 1 0.69052 0.571981 0.5
1364 1 0.738834 0.587735 0.5
671 1 0.769298 0.588601 0.5
574 1 0.80809 0.57186 0.5
1460 1 0.809102 0.582912 0.5
314 1 0.879252 0.58958 0.5
51 1 0.92108 0.592072 0.5
843 1 0.929171 0.582649 0.5
361 1 0.962253 0.584545 0.5
742 1 0.991883 0.574644 0.5
1532 2 0.977306 0.581542 0.5
751 1 0.00675961 0.608688 0.5
1046 1 0.00194049 0.613889 0.5
468 1 0.0295483 0.617965 0.5
43 1 0.055013 0.60339 0.5
157 1 0.14569 0.618815 0.5
766 1 0.14676 0.598278 0.5
1561 2 0.165027 0.612203 0.5
702 1 0.188767 0.60032 0.5
1278 1 0.19793 0.60662 0.5
1527 2 0.231785 0.610306 0.5
1406 1 0.241246 0.615559 0.5
767 1 0.306813 0.602364 0.5
1008 1 0.30485 0.615165 0.5
349 1 0.318831 0.599922 0.5
1263 1 0.34763 0.610873 0.5
1343 1 0.340489 0.600333 0.5
837 1 0.396775 0.599616 0.5
1497 1 0.40213 0.607144 0.5
552 1 0.458714 0.612869 0.5
906 1 0.462582 0.615514 0.5
1281 1 0.46871 0.606355 0.5
1359 1 0.473708 0.606525 0.5
291 1 0.478051 0.601193 0.5
334 1 0.496734 0.614232 0.5
1232 1 0.570453 0.611516 0.5
1457 1 0.548974 0.611632 0.5
323 1 0.574024 0.616265 0.5
418 1 0.636259 0.605594 0.5
1385 1 0.625728 0.612402 0.5
275 1 0.6528 0.616888 0.5
825 1 0.72515 0.601625 0.5
199 1 0.769597 0.616832 0.5
109 1 0.80827 0.600587 0.5
713 1 0.841412 0.618259 0.5
1087 1 0.877111 0.60096 0.5
406 1 0.974749 0.598425 0.5
420 1 0.967728 0.61065 0.5
1203 1 0.97582 0.59974 0.5
344 1 0.996287 0.603715 0.5
1172 1 0.0140792 0.629515 0.5
1025 1 0.0240758 0.641777 0.5
978 1 0.0681645 0.640321 0.5
1235 1 0.0750661 0.635675 0.5
48 1 0.100651 0.63902 0.5
268 1 0.145989 0.633569 0.5
474 1 0.179724 0.62346 0.5
1333 1 0.179784 0.63184 0.5
144 1 0.231845 0.620988 0.5
1238 1 0.217804 0.626614 0.5
821 1 0.253742 0.637618 0.5
611 1 0.290154 0.626002 0.5
1020 1 0.365957 0.641279 0.5
976 1 0.4583 0.642814 0.5
198 1 0.50691 0.629236 0.5
414 1 0.521904 0.642028 0.5
139 1 0.541776 0.625465 0.5
1349 1 0.557663 0.635451 0.5
814 1 0.641615 0.62033 0.5
1176 1 0.626087 0.636069 0.5
1445 1 0.637392 0.640889 0.5
135 1 0.666545 0.626288 0.5
297 1 0.648458 0.629585 0.5
1213 1 0.643936 0.629443 0.5
879 1 0.675411 0.63578 0.5
1260 1 0.698259 0.635414 0.5
877 1 0.735922 0.635298 0.5
991 1 0.726759 0.639994 0.5
1481 1 0.728247 0.641166 0.5
156 1 0.759424 0.637719 0.5
411 1 0.752581 0.636188 0.5
371 1 0.798694 0.642091 0.5
1410 1 0.808094 0.641076 0.5
1461 1 0.807379 0.622332 0.5
293 1 0.847006 0.631745 0.5
37 1 0.86914 0.641177 0.5
359 1 0.904958 0.637494 0.5
762 1 0.924354 0.620941 0.5
1187 1 0.910372 0.620422 0.5
82 1 0.0292528 0.651562 0.5
94 1 0.0409147 0.65279 0.5
698 1 0.0300265 0.655583 0.5
1242 1 0.027885 0.663919 0.5
394 1 0.0709623 0.664113 0.5
47 1 0.085004 0.661869 0.5
178 1 0.0781605 0.643433 0.5
358 1 0.0820876 0.645928 0.5
1535 2 0.0932144 0.655143 0.5
86 1 0.124512 0.665007 0.5
382 1 0.187461 0.660463 0.5
1382 1 0.183297 0.664852 0.5
1351 1 0.205608 0.656366 0.5
559 1 0.25053 0.655416 0.5
1011 1 0.261538 0.66425 0.5
353 1 0.378928 0.644826 0.5