LAMMPS (29 Sep 2021 - Update 1)
OMP_NUM_THREADS environment is not set. Defaulting to 1 thread. (src/src/comm.cpp:98)
  using 1 OpenMP thread(s) per MPI task
# Initialisation

variable T equal 300

units metal
atom_style full
boundary p p p
pair_style airebo 2.5 1 1
ERROR: Unrecognized pair style 'airebo' is part of the MANYBODY package which is not enabled in this LAMMPS binary. (src/src/force.cpp:278)
Last command: pair_style airebo 2.5 1 1
