LAMMPS (2 Aug 2023)
# Initialisation

variable T equal 300

units metal
atom_style full
boundary p p p
pair_style airebo 2.5 1 1

# System definition

#read_data cnt.data

# set pair_coeff
read_data carbon.data
Reading data file ...
  orthogonal box = (-20.965628 -19.438999 -40) to (59.034372 60.561001 40)
  1 by 1 by 1 MPI processor grid
  reading atoms ...
  680 atoms
  scanning bonds ...
  2 = max bonds/atom
  scanning angles ...
  3 = max angles/atom
  scanning dihedrals ...
  8 = max dihedrals/atom
  scanning impropers ...
  2 = max impropers/atom
  reading bonds ...
  983 bonds
  reading angles ...
  1894 angles
  reading dihedrals ...
  3665 dihedrals
  reading impropers ...
  608 impropers
Finding 1-2 1-3 1-4 neighbors ...
  special bond factors lj:    0        0        0       
  special bond factors coul:  0        0        0       
     3 = max # of 1-2 neighbors
     6 = max # of 1-3 neighbors
    18 = max # of 1-4 neighbors
    18 = max # of special neighbors
  special bonds CPU = 0.001 seconds
  read_data CPU = 0.028 seconds
pair_coeff * * CH.airebo C
Reading airebo potential file CH.airebo with DATE: 2011-10-25

# Simulation settings

group gcar type 1
680 atoms in group gcar
variable zmax equal bound(gcar,zmax)
variable zmin equal bound(gcar,zmin)
region rtop block INF INF INF INF ${zmax} INF
region rtop block INF INF INF INF 0 INF
region rbot block INF INF INF INF INF ${zmin}
region rbot block INF INF INF INF INF 0
region rmid block INF INF INF INF ${zmin} ${zmax}
region rmid block INF INF INF INF 0 ${zmax}
region rmid block INF INF INF INF 0 0

group gtop region rtop
680 atoms in group gtop
group gbot region rbot
680 atoms in group gbot
group gmid region rmid
680 atoms in group gmid

velocity gmid create ${T} 48455 mom yes rot yes
velocity gmid create 300 48455 mom yes rot yes
fix mynve all nve
compute Tmid gmid temp
fix myber gmid temp/berendsen ${T} ${T} 0.1
fix myber gmid temp/berendsen 300 ${T} 0.1
fix myber gmid temp/berendsen 300 300 0.1
fix_modify myber temp Tmid

# change below
fix mysf1 gbot setforce NULL NULL 0
fix mysf2 gtop setforce NULL NULL 0
velocity gbot set NULL NULL 0
velocity gtop set NULL NULL 0

variable pos equal xcm(gtop,z)
fix at1 all ave/time 10 100 1000 v_pos file cnt_deflection.dat
fix at2 all ave/time 10 100 1000 f_mysf1[1] f_mysf2[1] file force.dat
dump mydmp all atom 1000 dump.lammpstrj

thermo 100
thermo_modify temp Tmid
WARNING: Temperature for thermo pressure is not for group all (src/thermo.cpp:527)

# Run
timestep 0.0005
run 5000
WARNING: Using a manybody potential with bonds/angles/dihedrals and special_bond exclusions (src/pair.cpp:242)
WARNING: Bonds are defined but no bond style is set (src/force.cpp:193)
WARNING: Likewise 1-2 special neighbor interactions != 1.0 (src/force.cpp:195)
WARNING: Angles are defined but no angle style is set (src/force.cpp:198)
WARNING: Likewise 1-3 special neighbor interactions != 1.0 (src/force.cpp:200)
WARNING: Dihedrals are defined but no dihedral style is set (src/force.cpp:203)
WARNING: Likewise 1-4 special neighbor interactions != 1.0 (src/force.cpp:205)
WARNING: Impropers are defined but no improper style is set (src/force.cpp:208)
Neighbor list info ...
  update: every = 1 steps, delay = 0 steps, check = yes
  max neighbors/atom: 2000, page size: 100000
  master list distance cutoff = 10.5
  ghost atom cutoff = 10.5
  binsize = 5.25, bins = 16 16 16
  1 neighbor lists, perpetual/occasional/extra = 1 0 0
  (1) pair airebo, perpetual
      attributes: full, newton on, ghost
      pair build: full/bin/ghost
      stencil: full/ghost/bin/3d
      bin: standard
Per MPI rank memory allocation (min/avg/max) = 12.17 | 12.17 | 12.17 Mbytes
   Step          Temp          E_pair         E_mol          TotEng         Press     
         0   202.77563     -9.6679489      0              8.1291897     -12.405798    
       100   241.01687     -9.7281022      0              11.425379      1.85577      
       200   260.6046      -9.3288642      0              13.543786      14.354828    
       300   923.83751     -74.321212      0              6.7618246      75.547903    
       400   2654.881      -293.02705      0             -60.014418      169.62041    
       500   4108.5565     -533.94133      0             -173.34303      545.80127    
       600   7371.8364     -879.29463      0             -232.28597      405.75864    
       700   9162.251      -1201.7084      0             -397.55923      1094.9342    
       800   10397.427     -1614.1113      0             -701.55377      1503.3618    
       900   10518.275     -1969.5949      0             -1046.4308      2063.1026    
      1000   9705.6718     -2282.2126      0             -1430.3687      1200.3051    
      1100   10423.089     -2513.5273      0             -1598.7173      1461.6412    
      1200   8242.9304     -2697.0333      0             -1973.5708      952.47584    
      1300   6772.1792     -2885.7455      0             -2291.3673      407.8639     
      1400   5512.0526     -3036.1762      0             -2552.3963     -120.5759     
      1500   4862.8574     -3193.3026      0             -2766.5011     -181.14702    
      1600   3908.1269     -3284.8412      0             -2941.8341      194.68116    
      1700   2997.6972     -3346.8235      0             -3083.7227     -222.80849    
      1800   2708.749      -3436.3118      0             -3198.5713     -61.404012    
      1900   2305.0346     -3492.6379      0             -3290.3305     -337.00273    
      2000   1824.0767     -3526.9972      0             -3366.9023     -59.685104    
      2100   1648.7442     -3576.8197      0             -3432.1133      70.481021    
      2200   1372.8645     -3604.2944      0             -3483.8013      91.468584    
      2300   1173.8009     -3629.9895      0             -3526.9678     -21.284956    
      2400   1024.3962     -3654.1256      0             -3564.2168      54.803202    
      2500   959.46729     -3678.228       0             -3594.0178     -77.267824    
      2600   881.45037     -3698.5031      0             -3621.1403      54.245166    
      2700   800.74764     -3713.9877      0             -3643.708       174.69599    
      2800   663.20357     -3720.1334      0             -3661.9256     -0.97081827   
      2900   614.26196     -3730.5907      0             -3676.6784      25.015354    
      3000   527.82628     -3734.6443      0             -3688.3182      36.597181    
      3100   521.119       -3743.0188      0             -3697.2814     -43.201315    
      3200   524.37425     -3753.1597      0             -3707.1366      40.210227    
      3300   461.96903     -3755.7884      0             -3715.2425     -52.352358    
      3400   451.5604      -3761.9916      0             -3722.3592     -119.27145    
      3500   435.2598      -3767.2372      0             -3729.0355      11.749633    
      3600   410.25457     -3770.6568      0             -3734.6497      41.005992    
      3700   415.58558     -3775.962       0             -3739.487      -5.5511008    
      3800   396.22109     -3778.0864      0             -3743.3111      54.445543    
      3900   346.12746     -3776.7322      0             -3746.3534     -43.436864    
      4000   356.68204     -3779.96        0             -3748.6548      14.763896    
      4100   336.76777     -3780.0916      0             -3750.5343      34.194779    
      4200   336.91638     -3781.7302      0             -3752.1598     -49.578342    
      4300   331.41428     -3782.3996      0             -3753.3122      21.519188    
      4400   330.31011     -3783.5895      0             -3754.599       48.243601    
      4500   321.53273     -3783.4634      0             -3755.2433      42.943914    
      4600   318.71513     -3783.8615      0             -3755.8887      38.253329    
      4700   298.18486     -3782.6644      0             -3756.4934      43.226315    
      4800   330.52222     -3786.3357      0             -3757.3266     -43.13883     
      4900   309.30423     -3784.8869      0             -3757.74       -77.395284    
      5000   360.68452     -3790.4732      0             -3758.8168      43.912008    
WARNING: Bond/angle/dihedral extent > half of periodic box length (src/domain.cpp:936)
Loop time of 9.34177 on 1 procs for 5000 steps with 680 atoms

Performance: 23.122 ns/day, 1.038 hours/ns, 535.230 timesteps/s, 363.957 katom-step/s
99.2% CPU use with 1 MPI tasks x no OpenMP threads

MPI task timing breakdown:
Section |  min time  |  avg time  |  max time  |%varavg| %total
---------------------------------------------------------------
Pair    | 9.0029     | 9.0029     | 9.0029     |   0.0 | 96.37
Bond    | 0.00070564 | 0.00070564 | 0.00070564 |   0.0 |  0.01
Neigh   | 0.24802    | 0.24802    | 0.24802    |   0.0 |  2.65
Comm    | 0.0067318  | 0.0067318  | 0.0067318  |   0.0 |  0.07
Output  | 0.0024781  | 0.0024781  | 0.0024781  |   0.0 |  0.03
Modify  | 0.067042   | 0.067042   | 0.067042   |   0.0 |  0.72
Other   |            | 0.01393    |            |       |  0.15

Nlocal:            680 ave         680 max         680 min
Histogram: 1 0 0 0 0 0 0 0 0 0
Nghost:             91 ave          91 max          91 min
Histogram: 1 0 0 0 0 0 0 0 0 0
Neighs:              0 ave           0 max           0 min
Histogram: 1 0 0 0 0 0 0 0 0 0
FullNghs:        31360 ave       31360 max       31360 min
Histogram: 1 0 0 0 0 0 0 0 0 0

Total # of neighbors = 31360
Ave neighs/atom = 46.117647
Ave special neighs/atom = 16.558824
Neighbor list builds = 167
Dangerous builds = 0

# 0.15 A/ps = 30 m/s
velocity gtop set NULL NULL 0.15
run 250000
WARNING: Using a manybody potential with bonds/angles/dihedrals and special_bond exclusions (src/pair.cpp:242)
WARNING: Bonds are defined but no bond style is set (src/force.cpp:193)
WARNING: Likewise 1-2 special neighbor interactions != 1.0 (src/force.cpp:195)
WARNING: Angles are defined but no angle style is set (src/force.cpp:198)
WARNING: Likewise 1-3 special neighbor interactions != 1.0 (src/force.cpp:200)
WARNING: Dihedrals are defined but no dihedral style is set (src/force.cpp:203)
WARNING: Likewise 1-4 special neighbor interactions != 1.0 (src/force.cpp:205)
WARNING: Impropers are defined but no improper style is set (src/force.cpp:208)
WARNING: Inconsistent image flags (src/domain.cpp:815)
WARNING: Bond/angle/dihedral extent > half of periodic box length (src/domain.cpp:936)
Per MPI rank memory allocation (min/avg/max) = 13.2 | 13.2 | 13.2 Mbytes
   Step          Temp          E_pair         E_mol          TotEng         Press     
      5000   360.79303     -3790.4732      0             -3758.8073      43.931874    
      5100   369.01648     -3793.129       0             -3760.7413     -18.52341     
      5200   342.21994     -3792.8638      0             -3762.828       48.194294    
      5300   329.0295      -3793.1775      0             -3764.2993     -23.508996    
      5400   337.36311     -3795.4106      0             -3765.8011     -34.298498    
      5500   372.3798      -3800.6361      0             -3767.9532     -7.0426395    
      5600   363.3189      -3803.17        0             -3771.2824      5.3808296    
      5700   343.72518     -3804.2471      0             -3774.0791      88.737952    
      5800   336.40801     -3805.5927      0             -3776.0669      6.3752906    
      5900   341.38099     -3807.461       0             -3777.4988      89.214741    
      6000   341.95469     -3808.6926      0             -3778.68       -31.081238    
      6100   337.32817     -3809.2914      0             -3779.6849      40.606713    
      6200   325.4158      -3809.1017      0             -3780.5407     -28.34707     
      6300   315.18001     -3808.8039      0             -3781.1413     -45.386245    
      6400   319.01751     -3809.7179      0             -3781.7185     -44.319152    
      6500   355.3677      -3814.8056      0             -3783.6158     -57.830133    
      6600   339.51526     -3815.1156      0             -3785.3172     -126.33617    
      6700   338.99292     -3816.4654      0             -3786.7128      27.619327    
      6800   347.28669     -3819.1568      0             -3788.6763      100.43242    
      6900   373.24787     -3824.4823      0             -3791.7232      18.128553    
      7000   367.24808     -3826.6763      0             -3794.4438      65.597041    
      7100   354.74849     -3828.0133      0             -3796.8779      44.758662    
      7200   336.92537     -3828.3924      0             -3798.8212     -18.821905    
      7300   331.01359     -3829.2396      0             -3800.1873      83.3345      
      7400   335.39179     -3830.8568      0             -3801.4203     -9.2487622    
      7500   329.54617     -3831.3591      0             -3802.4356     -122.90491    
      7600   342.9405      -3833.2897      0             -3803.1906      105.1401     
      7700   307.3075      -3830.9342      0             -3803.9625     -91.211934    
      7800   308.59023     -3831.3642      0             -3804.28       -137.50987    
      7900   305.9966      -3831.5445      0             -3804.688      -78.263521    
      8000   299.60893     -3831.5105      0             -3805.2146     -41.30737     
      8100   313.57298     -3833.1092      0             -3805.5876      66.398109    
      8200   307.80805     -3832.9403      0             -3805.9247     -41.369886    
      8300   309.28923     -3833.3849      0             -3806.2393      97.867228    
      8400   315.78872     -3834.4904      0             -3806.7744      205.52777    
      8500   315.389       -3834.7532      0             -3807.0722     -62.805276    
      8600   346.81723     -3838.0319      0             -3807.5926     -20.236339    
      8700   356.73797     -3841.0959      0             -3809.7859     -12.448985    
      8800   339.8413      -3841.4252      0             -3811.5982      9.7209085    
      8900   336.56728     -3843.0499      0             -3813.5102      48.578606    
      9000   329.29351     -3843.6747      0             -3814.7734     -70.475226    
      9100   296.14363     -3841.6279      0             -3815.636      -28.265248    
      9200   320.53512     -3844.5899      0             -3816.4573      42.293297    
      9300   321.02813     -3845.5745      0             -3817.3987      53.967008    
      9400   322.50084     -3846.2543      0             -3817.9492     -5.6354592    
      9500   302.50655     -3844.8465      0             -3818.2962     -32.058567    
      9600   326.87433     -3847.1927      0             -3818.5037      54.625898    
      9700   284.21828     -3843.4837      0             -3818.5385      33.933206    
      9800   291.07727     -3844.2842      0             -3818.7371     -69.094534    
      9900   284.55837     -3843.8011      0             -3818.826       14.100642    
     10000   298.9087      -3844.9633      0             -3818.7288      101.12216    
     10100   350.04618     -3850.6277      0             -3819.905       71.305184    
     10200   336.78187     -3850.784       0             -3821.2254     -37.583618    
     10300   321.20978     -3850.0789      0             -3821.887       14.229958    
     10400   310.8664      -3849.7784      0             -3822.4944      1.3275834    
     10500   330.77353     -3852.2501      0             -3823.2189      35.292786    
     10600   326.61676     -3853.3635      0             -3824.6972     -53.730004    
     10700   323.108       -3854.1365      0             -3825.7781      129.71321    
     10800   329.12026     -3855.5193      0             -3826.6332     -8.3967894    
     10900   322.85747     -3855.5727      0             -3827.2363     -47.539826    
     11000   312.52858     -3855.469       0             -3828.0391     -33.157787    
     11100   321.00978     -3856.7522      0             -3828.5779     -117.31171    
     11200   296.44039     -3854.7785      0             -3828.7606      39.935521    
     11300   304.79742     -3855.9496      0             -3829.1982     -44.389756    
     11400   307.86894     -3856.4632      0             -3829.4423      123.98561    
     11500   294.0248      -3855.9285      0             -3830.1226     -14.329896    
     11600   315.23886     -3857.9647      0             -3830.2969     -34.254706    
     11700   292.01297     -3856.0096      0             -3830.3803      50.803064    
     11800   291.10597     -3856.194       0             -3830.6443     -34.318539    
     11900   302.15291     -3857.8569      0             -3831.3377     -22.106024    
     12000   332.122       -3861.7618      0             -3832.6122     -50.620956    
     12100   301.65356     -3860.1827      0             -3833.7073     -70.969419    
     12200   329.69481     -3863.4762      0             -3834.5397      32.198426    
     12300   289.85098     -3860.3601      0             -3834.9206     -46.842308    
     12400   323.162       -3863.9486      0             -3835.5854      114.14541    
     12500   307.76662     -3862.8878      0             -3835.8758      53.427814    
     12600   299.77419     -3862.2938      0             -3835.9834      13.76913     
     12700   307.17066     -3863.3818      0             -3836.4221     -42.498727    
     12800   320.27543     -3865.0377      0             -3836.9279     -5.246173     
     12900   313.04303     -3864.1331      0             -3836.6581      25.846305    
     13000   288.63924     -3862.076       0             -3836.7429      19.035861    
     13100   326.63642     -3865.3989      0             -3836.7308      63.183457    
     13200   303.77985     -3864.6451      0             -3837.983      -35.106233    
     13300   334.13306     -3868.4524      0             -3839.1263     -52.012625    
     13400   331.23804     -3869.8471      0             -3840.7751      36.087257    
     13500   343.84109     -3872.9346      0             -3842.7565      37.405818    
     13600   352.16526     -3875.2289      0             -3844.3202     -5.7073584    
     13700   304.49669     -3872.3068      0             -3845.5818     -85.91326     
     13800   335.13092     -3876.4193      0             -3847.0057      75.864127    
     13900   305.28513     -3875.095       0             -3848.3009      32.363841    
     14000   346.60628     -3880.1265      0             -3849.7056      28.722194    
     14100   340.35611     -3880.2754      0             -3850.4032     -35.892964    
     14200   308.21944     -3877.0979      0             -3850.0462     -39.703665    
     14300   310.5564      -3877.0254      0             -3849.7686      72.109735    
     14400   311.41904     -3876.7458      0             -3849.4133      12.111795    
     14500   280.68079     -3873.7952      0             -3849.1605      40.873768    
     14600   314.17373     -3876.7027      0             -3849.1285      48.926676    
     14700   307.30626     -3875.8138      0             -3848.8423      68.626245    
     14800   306.74618     -3875.7594      0             -3848.837       4.85782      
     14900   284.1388      -3873.8591      0             -3848.9209     -156.18466    
     15000   299.27512     -3875.0894      0             -3848.8227     -17.943881    
     15100   310.41112     -3876.2621      0             -3849.018      -119.84017    
     15200   302.28981     -3875.3622      0             -3848.8309     -23.612714    
     15300   316.72525     -3876.629       0             -3848.8308     -0.73747496   
     15400   289.28056     -3874.303       0             -3848.9136      42.129392    
     15500   303.33015     -3875.6511      0             -3849.0286     -29.144811    
     15600   295.69791     -3875.0675      0             -3849.1147      54.291059    
     15700   328.03798     -3877.973       0             -3849.1819      14.426517    
     15800   307.55216     -3876.2272      0             -3849.234      -45.696857    
     15900   311.29319     -3876.3583      0             -3849.0369     -49.35409     
     16000   292.15224     -3875.0022      0             -3849.3607     -53.02195     
     16100   290.89132     -3875.0849      0             -3849.554       32.805015    
     16200   294.38889     -3875.1225      0             -3849.2847     -81.553237    
     16300   307.26274     -3876.385       0             -3849.4173     -48.678214    
     16400   286.27348     -3874.5764      0             -3849.4508     -47.168043    
     16500   311.64889     -3876.8574      0             -3849.5048     -2.7914063    
     16600   292.98061     -3874.5374      0             -3848.8231     -49.742153    
     16700   333.3003      -3878.9393      0             -3849.6863      27.887812    
     16800   331.81636     -3879.803       0             -3850.6803      36.264802    
     16900   330.95253     -3880.6734      0             -3851.6264     -43.351131    
     17000   306.71863     -3879.6106      0             -3852.6907     -4.0430953    
     17100   322.42616     -3881.4553      0             -3853.1567     -163.05579    
     17200   364.88477     -3886.4047      0             -3854.3796     -31.346365    
     17300   353.38525     -3887.919       0             -3856.9032     -20.923298    
     17400   367.40238     -3892.2612      0             -3860.0151      9.0160995    
     17500   340.83312     -3892.1415      0             -3862.2274     -6.0853505    
     17600   336.44214     -3893.8835      0             -3864.3548     -16.256828    
     17700   367.09501     -3898.1363      0             -3865.9172      42.638927    
     17800   345.77778     -3897.7949      0             -3867.4468      37.011394    
     17900   348.85929     -3899.9151      0             -3869.2966     -34.168108    
     18000   310.76633     -3898.3634      0             -3871.0881     -32.172137    
     18100   298.84727     -3898.3552      0             -3872.1261     -20.00738     
     18200   324.43863     -3901.6556      0             -3873.1804      50.654667    
     18300   340.57658     -3903.7685      0             -3873.8769      1.6856535    
     18400   343.42651     -3905.738       0             -3875.5962     -33.319719    
     18500   311.89678     -3904.2359      0             -3876.8615      112.26419    
     18600   314.60105     -3906.0157      0             -3878.4039      53.904128    
     18700   329.72443     -3909.0309      0             -3880.0917      63.272179    
     18800   352.26488     -3911.9116      0             -3880.9942     -61.718216    
     18900   359.74613     -3914.3126      0             -3882.7385      31.307584    
     19000   343.41624     -3914.4225      0             -3884.2817      18.479269    
     19100   305.40589     -3912.5261      0             -3885.7213      83.797255    
     19200   292.71572     -3912.3085      0             -3886.6175      59.93505     
     19300   358.07331     -3919.0467      0             -3887.6194     -33.914097    
     19400   317.69216     -3917.1911      0             -3889.308      -72.944328    
     19500   351.0207      -3921.0806      0             -3890.2724     -52.928079    
     19600   319.68371     -3918.9637      0             -3890.9058      42.996992    
     19700   317.04026     -3919.3403      0             -3891.5144      3.3422512    
     19800   277.45012     -3916.5929      0             -3892.2418     -25.844729    
     19900   317.5931      -3920.2229      0             -3892.3485      6.5552403    
     20000   306.27497     -3920.2375      0             -3893.3565     -19.894288    
     20100   317.20099     -3921.6242      0             -3893.7842      39.19714     
     20200   297.36608     -3920.407       0             -3894.3079     -74.019784    
     20300   302.52314     -3921.6133      0             -3895.0615     -5.6568624    
     20400   335.99759     -3925.2063      0             -3895.7166      8.646868     
     20500   336.4882      -3925.74        0             -3896.2072      29.249958    
     20600   304.16102     -3923.6366      0             -3896.9411     -137.44612    
     20700   341.53813     -3927.3621      0             -3897.3861      74.519175    
     20800   318.8512      -3926.2913      0             -3898.3065      49.135032    
     20900   353.61408     -3930.3988      0             -3899.3629     -10.135722    
     21000   290.78152     -3924.9305      0             -3899.4093     -1.9412912    
     21100   318.67999     -3928.4307      0             -3900.4609      9.0586989    
     21200   273.93607     -3924.7283      0             -3900.6855     -56.717399    
     21300   313.06696     -3928.6457      0             -3901.1686      47.018224    
     21400   308.54288     -3928.1932      0             -3901.1132     -46.925347    
     21500   293.98511     -3927.7369      0             -3901.9345     -15.814066    
     21600   249.55466     -3923.2269      0             -3901.3241      19.476021    
     21700   287.81218     -3926.1194      0             -3900.8588      75.403903    
     21800   283.29764     -3925.1533      0             -3900.2889     -72.890763    
     21900   298.04264     -3925.8563      0             -3899.6978     -58.256812    
     22000   280.11499     -3924.1079      0             -3899.5228     -13.802105    
     22100   271.4705      -3924.395       0             -3900.5687     -21.995649    
     22200   341.09148     -3931.8229      0             -3901.8861      28.024387    
     22300   348.61446     -3933.5389      0             -3902.9419      28.151668    
     22400   360.15725     -3935.9484      0             -3904.3382      134.99451    
     22500   328.36589     -3935.0274      0             -3906.2075      19.556832    
     22600   359.15873     -3938.8703      0             -3907.3478      38.005679    
     22700   337.26766     -3937.8545      0             -3908.2533      21.562331    
     22800   305.17404     -3935.8583      0             -3909.0739     -13.662911    
     22900   356.90859     -3941.9963      0             -3910.6713      128.00343    
     23000   299.97376     -3938.0228      0             -3911.6948      25.007429    
     23100   308.10899     -3938.9991      0             -3911.9571     -78.355444    
     23200   326.98583     -3941.1748      0             -3912.476       25.84343     
     23300   320.93281     -3941.1329      0             -3912.9654      50.639986    
     23400   301.22585     -3939.7835      0             -3913.3456     -64.74748     
     23500   354.59658     -3945.1681      0             -3914.0459     -41.230638    
     23600   387.0105      -3950.0697      0             -3916.1027      25.177422    
     23700   341.63334     -3948.0962      0             -3918.1118     -10.431409    
     23800   319.62086     -3947.8706      0             -3919.8182     -38.488909    
     23900   340.72458     -3951.2042      0             -3921.2996     -24.156381    
     24000   371.41499     -3957.7374      0             -3925.1392      109.92726    
     24100   341.53011     -3957.7681      0             -3927.7929     -21.393916    
     24200   377.6485      -3962.875       0             -3929.7297      16.248681    
     24300   296.86542     -3957.7263      0             -3931.6711     -56.049256    
     24400   307.11172     -3959.9514      0             -3932.9969      92.625354    
     24500   356.71435     -3965.7729      0             -3934.4649      29.681097    
     24600   294.97307     -3962.1034      0             -3936.2143     -54.243365    
     24700   345.41977     -3967.8496      0             -3937.533      -44.903691    
     24800   308.94019     -3965.7624      0             -3938.6475     -12.434674    
     24900   301.49985     -3965.6091      0             -3939.1472     -73.757719    
     25000   284.93644     -3965.0437      0             -3940.0355     -28.840469    
     25100   334.61217     -3969.7188      0             -3940.3507      35.024791    
     25200   293.26386     -3966.6084      0             -3940.8694     -154.96914    
     25300   352.79621     -3972.3022      0             -3941.3381     -15.102348    
     25400   326.90185     -3970.4501      0             -3941.7587      38.744361    
     25500   327.84739     -3970.3082      0             -3941.5338      6.8312966    
     25600   300.80172     -3968.2742      0             -3941.8736      20.384963    
     25700   298.06851     -3968.3885      0             -3942.2277     -2.25642      
     25800   289.96588     -3967.7595      0             -3942.3098      27.167995    
     25900   313.42006     -3970.271       0             -3942.7629     -44.200659    
     26000   323.13756     -3971.8085      0             -3943.4475      97.870953    
     26100   348.7551      -3975.3432      0             -3944.7338     -22.91551     
     26200   298.75897     -3971.196       0             -3944.9746      50.095348    
     26300   308.97697     -3972.3343      0             -3945.2161      1.6159996    
     26400   335.4511      -3975.4981      0             -3946.0564     -62.293423    
     26500   302.92562     -3972.5972      0             -3946.0102     -52.751902    
     26600   318.11834     -3974.626       0             -3946.7055     -5.5268089    
     26700   304.0639      -3973.5965      0             -3946.9095      138.58334    
     26800   280.62837     -3971.9569      0             -3947.3268     -116.76034    
     26900   307.87247     -3975.2626      0             -3948.2414      33.509236    
     27000   337.94672     -3978.6951      0             -3949.0343      18.374358    
     27100   302.75715     -3976.6501      0             -3950.0778     -26.817233    
     27200   363.78584     -3983.8615      0             -3951.9329     -48.764748    
     27300   358.22014     -3984.1809      0             -3952.7407     -24.245677    
     27400   319.83258     -3982.4725      0             -3954.4015     -51.175405    
     27500   307.07668     -3982.3755      0             -3955.4241      44.415473    
     27600   301.16209     -3982.7918      0             -3956.3595     -12.388061    
     27700   332.75377     -3986.289       0             -3957.0839     -71.024267    
     27800   310.67806     -3985.2307      0             -3957.9632      8.7534024    
     27900   324.82371     -3986.8817      0             -3958.3727     -53.465802    
     28000   293.36178     -3984.6221      0             -3958.8744      19.906748    
     28100   343.44589     -3989.4439      0             -3959.3004     -12.651851    
     28200   305.83903     -3986.4295      0             -3959.5868     -73.907839    
     28300   316.78874     -3987.6437      0             -3959.8399      42.822876    
     28400   315.71093     -3987.3872      0             -3959.678      -51.485062    
     28500   312.24278     -3987.5967      0             -3960.1919     -78.468773    
     28600   337.6208      -3990.5461      0             -3960.9139      41.526726    
     28700   329.60395     -3990.6766      0             -3961.7481      0.99625792   
     28800   315.7568      -3989.7731      0             -3962.0599     -30.287562    
     28900   316.14014     -3990.5293      0             -3962.7824     -16.890286    
     29000   302.31045     -3989.5702      0             -3963.0371      22.641165    
     29100   311.44256     -3990.7311      0             -3963.3965     -21.651158    
     29200   319.9284      -3991.7338      0             -3963.6545     -85.635698    
     29300   301.68457     -3990.4349      0             -3963.9567      52.656845    
     29400   302.22308     -3990.7699      0             -3964.2445      35.893047    
     29500   326.20348     -3992.7779      0             -3964.1478      42.000352    
     29600   309.23841     -3991.3284      0             -3964.1873      69.839185    
     29700   316.64431     -3992.02        0             -3964.2289      101.58839    
     29800   313.9986      -3992.0432      0             -3964.4843     -60.333494    
     29900   318.51976     -3992.6649      0             -3964.7092      37.373076    
     30000   289.74768     -3990.2243      0             -3964.7938      15.1601      
     30100   307.21652     -3991.8813      0             -3964.9176     -85.93527     
     30200   317.04858     -3993.3107      0             -3965.4841      51.230138    
     30300   303.60758     -3992.4558      0             -3965.8089      32.152246    
     30400   296.16361     -3991.8592      0             -3965.8656     -14.081148    
     30500   286.95199     -3990.9596      0             -3965.7745      126.69975    
     30600   300.39294     -3992.4341      0             -3966.0693     -32.820626    
     30700   304.14538     -3992.4535      0             -3965.7593     -37.220227    
     30800   295.48554     -3991.2491      0             -3965.315       51.224603    
     30900   296.7204      -3991.2719      0             -3965.2294      8.3084986    
     31000   304.89383     -3991.9199      0             -3965.1601     -47.755947    
     31100   298.24725     -3991.2649      0             -3965.0884     -36.819904    
     31200   301.20243     -3991.8429      0             -3965.4071     -78.253852    
     31300   301.26949     -3992.0422      0             -3965.6005     -11.05532     
     31400   283.83922     -3990.6044      0             -3965.6925     -42.602758    
     31500   291.06994     -3991.0241      0             -3965.4776     -16.771374    
     31600   281.96495     -3989.8799      0             -3965.1325     -83.583884    
     31700   313.82023     -3993.1051      0             -3965.5618      62.916267    
     31800   271.79147     -3990.1252      0             -3966.2707     -11.220972    
     31900   318.02692     -3995           0             -3967.0875     -26.470447    
     32000   323.73435     -3997.1101      0             -3968.6967      47.258614    
     32100   326.95743     -3998.7187      0             -3970.0224      57.156606    
     32200   344.48976     -4001.7468      0             -3971.5118      26.932364    
     32300   312.59916     -3999.8101      0             -3972.374       25.526438    
     32400   351.97907     -4004.2039      0             -3973.3115      84.101502    
     32500   275.9266      -3998.9515      0             -3974.734      -75.384117    
     32600   330.73131     -4004.9751      0             -3975.9476     -8.420694     
     32700   298.85197     -4002.5792      0             -3976.3496     -15.884696    
     32800   307.47002     -4003.772       0             -3976.7861      154.34906    
     32900   309.45483     -4004.408       0             -3977.2479      95.056766    
     33000   315.30909     -4005.6921      0             -3978.0182      18.746804    
     33100   316.47047     -4006.5973      0             -3978.8215      138.78967    
     33200   323.13908     -4007.308       0             -3978.9469      78.144788    
     33300   306.52395     -4006.5792      0             -3979.6763     -26.312216    
     33400   300.24003     -4006.745       0             -3980.3937     -84.73795     
     33500   310.96363     -4007.9949      0             -3980.7024     -63.610959    
     33600   293.12671     -4006.6904      0             -3980.9633     -20.834519    
     33700   297.31578     -4007.1673      0             -3981.0726     -87.56812     
     33800   284.12476     -4005.7315      0             -3980.7946      62.743946    
     33900   284.72025     -4005.8807      0             -3980.8915     -47.663097    
     34000   317.53189     -4008.4019      0             -3980.5328      75.602085    
     34100   298.96534     -4006.7653      0             -3980.5258     -69.352385    
     34200   312.3069      -4007.7025      0             -3980.292      -103.97388    
     34300   305.17276     -4007.3443      0             -3980.56       -15.490287    
     34400   290.62245     -4006.2362      0             -3980.7289     -40.923945    
     34500   303.55431     -4007.7497      0             -3981.1075      90.216984    
     34600   312.84221     -4008.7496      0             -3981.2922      72.994558    
     34700   273.01215     -4005.3754      0             -3981.4137     -21.079725    
     34800   278.50444     -4005.8442      0             -3981.4005     -53.92074     
     34900   314.03717     -4008.8141      0             -3981.2518      74.333822    
     35000   331.37763     -4009.9456      0             -3980.8613      21.593315    
     35100   288.05924     -4005.8801      0             -3980.5978      27.288812    
     35200   313.45291     -4008.2817      0             -3980.7707      86.773884    
     35300   359.39528     -4013.4641      0             -3981.9208      19.731693    
     35400   316.44168     -4010.8943      0             -3983.1209      45.161229    
     35500   287.57387     -4008.9971      0             -3983.7575      145.26106    
     35600   355.94717     -4016.0735      0             -3984.8329      61.946663    
     35700   351.29968     -4016.7397      0             -3985.9069      1.5258759    
     35800   313.33743     -4014.2042      0             -3986.7034      36.439033    
     35900   329.35297     -4016.2459      0             -3987.3394      11.952693    
     36000   327.41301     -4016.6652      0             -3987.929      -112.25885    
     36100   319.11438     -4016.5552      0             -3988.5473     -23.624622    
     36200   299.0671      -4015.6571      0             -3989.4087     -23.172677    
     36300   321.93819     -4018.1903      0             -3989.9345      5.4748916    
     36400   308.05478     -4017.3901      0             -3990.3529     -78.775737    
     36500   315.9401      -4018.486       0             -3990.7567     -15.963799    
     36600   300.17558     -4017.5783      0             -3991.2326      9.1327599    
     36700   331.27447     -4021.0015      0             -3991.9263     -35.191014    
     36800   313.56796     -4019.8538      0             -3992.3327      6.9918463    
     36900   301.12026     -4018.8911      0             -3992.4624     -137.81894    
     37000   302.89473     -4019.4104      0             -3992.826      -27.478361    
     37100   291.18814     -4018.4327      0             -3992.8758      59.389741    
     37200   316.42611     -4021.2025      0             -3993.4305     -38.600885    
     37300   297.1785      -4019.8212      0             -3993.7385      61.179475    
     37400   303.37172     -4020.6635      0             -3994.0373      34.075324    
     37500   299.27883     -4020.24        0             -3993.973       12.508791    
     37600   318.99707     -4022.118       0             -3994.1204      61.375004    
     37700   291.78352     -4020.0311      0             -3994.4219      31.585576    
     37800   325.08032     -4023.0446      0             -3994.5131      78.396562    
     37900   310.63873     -4022.3818      0             -3995.1178      58.708344    
     38000   329.90088     -4024.743       0             -3995.7884      31.472717    
     38100   301.25388     -4023.0057      0             -3996.5653      65.145657    
     38200   304.99469     -4024.1708      0             -3997.4021      107.0985     
     38300   323.14468     -4026.735       0             -3998.3734      12.37254     
     38400   310.21759     -4025.987       0             -3998.7599      34.35287     
     38500   294.93663     -4024.7535      0             -3998.8676     -61.647421    
     38600   325.6219      -4027.8397      0             -3999.2606     -51.006603    
     38700   332.8257      -4028.7367      0             -3999.5253     -16.277312    
     38800   298.22575     -4025.924       0             -3999.7494     -49.233815    
     38900   328.35568     -4028.9843      0             -4000.1653     -73.106677    
     39000   295.25419     -4026.0079      0             -4000.0941      9.2530813    
     39100   298.52873     -4026.3365      0             -4000.1354     -3.7583751    
     39200   293.37386     -4025.9717      0             -4000.223      -21.105842    
     39300   292.98545     -4025.7749      0             -4000.0602     -73.324851    
     39400   315.10081     -4028.0389      0             -4000.3833      14.21403     
     39500   310.0261      -4027.6232      0             -4000.4129     -18.950352    
     39600   286.61782     -4025.4972      0             -4000.3414     -51.169611    
     39700   321.11387     -4028.6544      0             -4000.471       38.457077    
     39800   309.18379     -4027.6896      0             -4000.5532      91.567846    
     39900   305.60297     -4027.5583      0             -4000.7363      25.122818    
     40000   299.05985     -4026.9967      0             -4000.7489     -0.43672212   
     40100   284.52004     -4025.8017      0             -4000.8301      72.483079    
     40200   282.37453     -4025.3032      0             -4000.5199      41.829933    
     40300   296.43603     -4026.9822      0             -4000.9647      74.0538      
     40400   295.54498     -4026.923       0             -4000.9837     -15.763531    
     40500   295.53652     -4026.908       0             -4000.9694      27.167711    
     40600   286.28233     -4025.9423      0             -4000.8159      25.88016     
     40700   299.63692     -4027.1993      0             -4000.9009     -53.784093    
     40800   294.6077      -4026.7996      0             -4000.9426      62.327448    
     40900   288.20412     -4025.9792      0             -4000.6842      17.622375    
     41000   319.27832     -4028.7562      0             -4000.7339      61.103547    
     41100   326.88443     -4029.3027      0             -4000.6128      43.626811    
     41200   273.12667     -4024.381       0             -4000.4093     -163.71625    
     41300   311.36651     -4027.9845      0             -4000.6566      82.976175    
     41400   303.86082     -4027.1763      0             -4000.5072     -54.557836    
     41500   310.62692     -4027.7547      0             -4000.4917     -36.816156    
     41600   313.01737     -4028.0214      0             -4000.5486     -81.229909    
     41700   330.62726     -4030.0236      0             -4001.0052     -11.065009    
     41800   329.78537     -4030.8407      0             -4001.8962      39.454178    
     41900   305.06839     -4029.5891      0             -4002.814      -25.435313    
     42000   304.00528     -4030.2282      0             -4003.5464     -40.847507    
     42100   315.84645     -4031.8482      0             -4004.1271     -25.681232    
     42200   320.81569     -4032.8627      0             -4004.7055     -65.382712    
     42300   287.49351     -4030.1361      0             -4004.9034      2.985443     
     42400   312.63815     -4032.5793      0             -4005.1398     -30.307854    
     42500   300.07867     -4031.4635      0             -4005.1263      75.407726    
     42600   310.00558     -4032.5344      0             -4005.326      -2.1976421    
     42700   315.15755     -4033.2598      0             -4005.5991     -15.257553    
     42800   303.61992     -4032.2282      0             -4005.5802     -2.4535045    
     42900   283.11275     -4030.2864      0             -4005.4383     -9.1645483    
     43000   309.10958     -4032.849       0             -4005.7192     -86.09456     
     43100   279.80053     -4030.3221      0             -4005.7647     -13.385414    
     43200   316.50893     -4033.7541      0             -4005.9749      43.27992     
     43300   292.88082     -4031.8385      0             -4006.1331      29.083294    
     43400   309.02923     -4033.3259      0             -4006.2031      144.69534    
     43500   294.0849      -4031.7453      0             -4005.9342      71.477237    
     43600   289.23054     -4031.076       0             -4005.691      -21.596494    
     43700   297.00449     -4031.4362      0             -4005.3688     -5.7140274    
     43800   306.84165     -4032.4604      0             -4005.5296      40.915006    
     43900   294.44715     -4031.4312      0             -4005.5883      41.035281    
     44000   302.09553     -4031.9767      0             -4005.4625      21.962926    
     44100   311.91186     -4033.0371      0             -4005.6614     -52.869843    
     44200   313.64377     -4033.4875      0             -4005.9597      52.529305    
     44300   313.3146      -4033.7207      0             -4006.2218     -7.6799581    
     44400   308.48629     -4033.5635      0             -4006.4884     -80.63041     
     44500   285.67909     -4031.7604      0             -4006.687      -78.333392    
     44600   292.35058     -4032.3513      0             -4006.6924      64.18876     
     44700   301.68919     -4033.236       0             -4006.7575     -95.654875    
     44800   288.59959     -4032.0294      0             -4006.6997     -34.39327     
     44900   284.72956     -4031.4444      0             -4006.4543     -62.567374    
     45000   295.41934     -4032.5038      0             -4006.5755     -27.23396     
     45100   300.8593      -4032.5471      0             -4006.1414     -50.543151    
     45200   310.09385     -4033.4531      0             -4006.2369      62.862819    
     45300   318.41518     -4034.593       0             -4006.6465     -12.925623    
     45400   323.50655     -4035.5419      0             -4007.1484     -61.072403    
     45500   312.27531     -4035.2248      0             -4007.8171     -4.158229     
     45600   318.40345     -4036.5032      0             -4008.5576     -39.677148    
     45700   327.32758     -4037.7465      0             -4009.0177     -33.128839    
     45800   310.64302     -4036.6641      0             -4009.3997      79.668692    
     45900   308.28229     -4036.4627      0             -4009.4055      106.36409    
     46000   315.014       -4037.2836      0             -4009.6356      82.071615    
     46100   305.96049     -4036.4172      0             -4009.5637     -3.3487048    
     46200   309.55979     -4036.4655      0             -4009.2962      44.331338    
     46300   273.4571      -4033.225       0             -4009.2243      93.01884     
     46400   304.87384     -4035.8425      0             -4009.0844      62.704562    
     46500   305.71345     -4035.905       0             -4009.0732     -30.604715    
     46600   306.03548     -4036.1005      0             -4009.2405      89.488938    
     46700   300.45088     -4035.5503      0             -4009.1804      62.384459    
     46800   306.80855     -4036.5098      0             -4009.582      -0.65253069   
     46900   320.10589     -4038.0844      0             -4009.9894      46.324501    
     47000   317.06631     -4037.9873      0             -4010.1591      2.7827881    
     47100   287.15485     -4035.534       0             -4010.3311      7.5302332    
     47200   302.62579     -4036.853       0             -4010.2923     -8.5582257    
     47300   286.05639     -4035.3154      0             -4010.2089     -73.183634    
     47400   298.1746      -4036.2345      0             -4010.0644      38.622455    
     47500   285.40092     -4035.1097      0             -4010.0607     -133.79413    
     47600   290.9184      -4035.3148      0             -4009.7815     -93.407923    
     47700   294.92961     -4035.3         0             -4009.4147     -33.618686    
     47800   288.39872     -4034.9405      0             -4009.6284     -174.84639    
     47900   299.15944     -4035.5302      0             -4009.2736      11.966207    
     48000   289.69136     -4034.5977      0             -4009.1722     -97.118697    
     48100   313.97969     -4037.0372      0             -4009.48        15.706293    
     48200   327.48691     -4038.7099      0             -4009.9672      29.132613    
     48300   310.91579     -4037.4712      0             -4010.1829     -52.002002    
     48400   311.04997     -4037.566       0             -4010.2658      73.439673    
     48500   298.68564     -4036.4651      0             -4010.2501      84.652172    
     48600   302.93271     -4036.9401      0             -4010.3524     -24.953189    
     48700   317.33012     -4038.2075      0             -4010.3562      74.097593    
     48800   312.04343     -4037.6069      0             -4010.2196     -18.916598    
     48900   290.02496     -4035.4718      0             -4010.017      -70.83649     
     49000   300.85293     -4036.4601      0             -4010.0549      85.562554    
     49100   300.03624     -4036.5888      0             -4010.2553      62.076981    
     49200   318.64304     -4038.7599      0             -4010.7934      40.041434    
     49300   311.35044     -4038.8181      0             -4011.4916      7.2434439    
     49400   315.48066     -4039.6072      0             -4011.9182      108.04069    
     49500   321.49431     -4040.6546      0             -4012.4378      32.41301     
     49600   302.48398     -4039.3889      0             -4012.8406     -23.64475     
     49700   298.88396     -4039.1665      0             -4012.9342     -30.053481    
     49800   292.33614     -4038.9287      0             -4013.271      -43.863788    
     49900   309.44171     -4040.9875      0             -4013.8286      42.53211     
     50000   291.21604     -4039.3923      0             -4013.8329     -32.659673    
     50100   313.04853     -4041.2724      0             -4013.7968     -29.081305    
     50200   300.93987     -4040.2692      0             -4013.8564      4.1631433    
     50300   306.88353     -4040.6652      0             -4013.7307     -23.372462    
     50400   292.30762     -4039.2284      0             -4013.5733     -85.169555    
     50500   276.91397     -4037.6048      0             -4013.3007     -48.576544    
     50600   299.27583     -4039.5626      0             -4013.2958      83.720098    
     50700   292.25801     -4038.8876      0             -4013.2368     -88.212872    
     50800   314.61677     -4040.7881      0             -4013.1749     -12.103806    
     50900   304.21987     -4040.2606      0             -4013.5599      8.8306845    
     51000   303.35306     -4040.502       0             -4013.8774     -15.429821    
     51100   311.58168     -4041.4071      0             -4014.0603     -8.6803548    
     51200   295.1236      -4040.1266      0             -4014.2243     -51.795825    
     51300   308.21681     -4041.3289      0             -4014.2774     -33.295678    
     51400   293.25792     -4040.0983      0             -4014.3597     -68.05563     
     51500   305.04181     -4041.2256      0             -4014.4528     -12.529783    
     51600   295.90395     -4040.3419      0             -4014.3712      82.846187    
     51700   309.4218      -4041.3367      0             -4014.1795     -2.1166453    
     51800   307.92668     -4040.9343      0             -4013.9083     -43.432643    
     51900   294.02048     -4039.227       0             -4013.4215      92.317702    
     52000   310.76875     -4040.6738      0             -4013.3984      77.014544    
     52100   298.85784     -4039.6707      0             -4013.4407      2.0796108    
     52200   301.87799     -4039.9819      0             -4013.4868      68.588458    
     52300   299.72668     -4039.7829      0             -4013.4766     -52.672356    
     52400   293.51397     -4039.3695      0             -4013.6084     -4.7534213    
     52500   310.59057     -4041.3847      0             -4014.1249     -14.337996    
     52600   297.4418      -4040.4383      0             -4014.3326      76.528252    
     52700   298.81404     -4040.3555      0             -4014.1293     -27.281351    
     52800   299.98831     -4040.3682      0             -4014.0389     -0.051054301  
     52900   285.76893     -4038.8975      0             -4013.8162     -55.407635    
     53000   290.36779     -4039.1133      0             -4013.6284      9.5983567    
     53100   298.75026     -4039.7781      0             -4013.5575     -84.093095    
     53200   308.97686     -4040.3441      0             -4013.2259      3.6883623    
     53300   274.00015     -4037.2702      0             -4013.2219     -76.949548    
     53400   306.57219     -4040.2305      0             -4013.3234      82.827042    
     53500   288.32718     -4038.7838      0             -4013.478      -24.822694    
     53600   300.28654     -4040.0547      0             -4013.6992     -15.114445    
     53700   292.19429     -4039.5902      0             -4013.945      -17.35353     
     53800   318.82039     -4042.1603      0             -4014.1782      69.269676    
     53900   305.61212     -4041.0394      0             -4014.2165      0.43929349   
     54000   289.97489     -4039.6329      0             -4014.1825     -104.5951     
     54100   294.6665      -4039.8736      0             -4014.0114     -92.579517    
     54200   296.12077     -4039.8059      0             -4013.8161      19.039407    
     54300   296.7439      -4039.6243      0             -4013.5798      16.524664    
     54400   306.44761     -4040.3013      0             -4013.4051      18.191813    
     54500   299.15987     -4039.4938      0             -4013.2373      18.829313    
     54600   295.78289     -4039.2402      0             -4013.28       -29.410937    
     54700   300.42143     -4039.7359      0             -4013.3687      24.111458    
     54800   304.73125     -4040.2836      0             -4013.538       56.640432    
     54900   310.8798      -4040.9986      0             -4013.7134     -49.162983    
     55000   299.86258     -4040.3164      0             -4013.9982      5.6916635    
     55100   306.73728     -4041.4391      0             -4014.5175      53.713939    
     55200   303.32465     -4041.4105      0             -4014.7885     -25.779525    
     55300   301.49778     -4041.2129      0             -4014.7511     -0.43724156   
     55400   298.18683     -4040.6648      0             -4014.4936      80.264933    
     55500   297.76381     -4040.5814      0             -4014.4474     -11.017024    
     55600   305.59233     -4040.8184      0             -4013.9973     -4.2378265    
     55700   305.97352     -4040.3898      0             -4013.5353      21.810533    
     55800   307.99291     -4040.417       0             -4013.3852      29.445785    
     55900   309.61467     -4040.3966      0             -4013.2225     -16.933825    
     56000   325.65755     -4042.9376      0             -4014.3554      105.5115     
     56100   309.12044     -4042.4642      0             -4015.3334     -12.673425    
     56200   323.21015     -4044.5274      0             -4016.16       -45.591707    
     56300   313.47569     -4044.4298      0             -4016.9168     -38.030026    
     56400   313.87057     -4045.2408      0             -4017.6931     -31.731796    
     56500   292.90544     -4043.7509      0             -4018.0432     -89.043914    
     56600   292.35342     -4043.8434      0             -4018.1842     -99.889786    
     56700   297.2858      -4044.1188      0             -4018.0267     -54.154263    
     56800   277.09408     -4042.2965      0             -4017.9766     -65.270504    
     56900   317.30296     -4045.7968      0             -4017.9479      29.518688    
     57000   321.16311     -4046.0669      0             -4017.8792      7.8514101    
     57100   324.75        -4046.4835      0             -4017.9809     -78.967689    
     57200   296.90954     -4044.7031      0             -4018.6441     -13.662416    
     57300   329.76614     -4048.2181      0             -4019.2753      2.9027105    
     57400   313.06619     -4047.4349      0             -4019.9579     -13.739952    
     57500   318.80381     -4048.6096      0             -4020.6289      28.60865     
     57600   330.74414     -4050.2375      0             -4021.2089     -4.9856889    
     57700   304.18636     -4048.3953      0             -4021.6976     -29.248188    
     57800   305.76719     -4048.7005      0             -4021.864       14.623532    
     57900   302.40421     -4048.3224      0             -4021.7811      63.481447    
     58000   297.89673     -4048.579       0             -4022.4333      43.313832    
     58100   318.02998     -4050.8446      0             -4022.9318      17.854718    
     58200   300.05752     -4049.5446      0             -4023.2092      90.740125    
     58300   300.82819     -4050.0404      0             -4023.6374      39.321002    
     58400   309.95041     -4051.0842      0             -4023.8806      20.284199    
     58500   316.04005     -4052.0399      0             -4024.3018      44.574165    
     58600   301.12691     -4051.099       0             -4024.6698      41.555181    
     58700   311.85574     -4052.3622      0             -4024.9914     -21.896753    
     58800   319.82897     -4052.6556      0             -4024.585      -11.324703    
     58900   305.44477     -4051.9496      0             -4025.1414     -76.603829    
     59000   307.94196     -4052.4239      0             -4025.3966      18.418004    
     59100   301.60928     -4052.0975      0             -4025.626      -19.074295    
     59200   313.26934     -4053.3853      0             -4025.8904     -65.847675    
     59300   308.66548     -4052.6631      0             -4025.5722     -27.9193      
     59400   294.96714     -4051.4683      0             -4025.5798     -5.0545953    
     59500   302.5228      -4051.9771      0             -4025.4254     -33.030824    
     59600   296.22712     -4051.4458      0             -4025.4466     -58.440292    
     59700   322.82132     -4053.3334      0             -4025.0002     -66.662185    
     59800   302.25634     -4051.659       0             -4025.1307      22.426428    
     59900   328.27742     -4054.2949      0             -4025.4827     -25.992344    
     60000   313.6816      -4053.2798      0             -4025.7487     -22.904324    
     60100   331.62407     -4055.936       0             -4026.8301     -60.601454    
     60200   309.71414     -4054.7404      0             -4027.5576     -66.804436    
     60300   317.91179     -4056.2763      0             -4028.3739     -23.005698    
     60400   313.02051     -4056.1958      0             -4028.7227     -23.012108    
     60500   299.99316     -4055.2767      0             -4028.947      -26.710037    
     60600   321.94793     -4057.5718      0             -4029.3152      15.617464    
     60700   288.75152     -4054.836       0             -4029.493       39.094581    
     60800   300.54554     -4055.8259      0             -4029.4477     -27.479273    
     60900   296.32694     -4055.1676      0             -4029.1597      56.568423    
     61000   297.30449     -4055.3696      0             -4029.2759     -12.867825    
     61100   310.67373     -4056.6089      0             -4029.3418      50.508456    
     61200   303.57967     -4056.3875      0             -4029.743       13.979981    
     61300   299.52919     -4056.2758      0             -4029.9868     -116.74132    
     61400   300.47774     -4056.4228      0             -4030.0506      83.289102    
     61500   283.41165     -4054.7085      0             -4029.8341      39.884263    
     61600   279.09044     -4054.2249      0             -4029.7298     -83.67487     
     61700   296.31772     -4055.6561      0             -4029.649       4.9494064    
     61800   302.65151     -4056.2872      0             -4029.7242      17.354504    
     61900   294.50118     -4055.4461      0             -4029.5984      12.518574    
     62000   304.86528     -4056.0758      0             -4029.3185      29.160173    
     62100   296.63236     -4055.2639      0             -4029.2292     -0.057945949  
     62200   283.30864     -4053.8633      0             -4028.998       38.355699    
     62300   309.76981     -4056.21        0             -4029.0223      52.658324    
     62400   302.40187     -4055.6923      0             -4029.1512     -28.320138    
     62500   300.21797     -4055.4676      0             -4029.1181     -27.895596    
     62600   289.21011     -4054.6287      0             -4029.2454      51.950075    
     62700   310.11493     -4056.6702      0             -4029.4521     -45.035735    
     62800   289.5922      -4054.7394      0             -4029.3226     -76.873293    
     62900   309.16231     -4056.681       0             -4029.5465      22.257981    
     63000   308.48778     -4056.7065      0             -4029.6312      33.468654    
     63100   294.0497      -4055.3364      0             -4029.5284      27.522481    
     63200   294.52199     -4055.3316      0             -4029.4821     -63.543333    
     63300   285.57466     -4054.1499      0             -4029.0857     -17.028535    
     63400   302.52246     -4055.3412      0             -4028.7895     -9.4570068    
     63500   307.96098     -4055.8569      0             -4028.8279      117.61146    
     63600   304.00107     -4056.0005      0             -4029.3191      34.031301    
     63700   306.08639     -4056.4891      0             -4029.6246     -23.601687    
     63800   294.10283     -4055.8103      0             -4029.9975      28.40996     
     63900   309.34626     -4057.1749      0             -4030.0243     -63.53678     
     64000   299.78605     -4056.4759      0             -4030.1644      1.7539715    
     64100   297.01879     -4056.326       0             -4030.2574     -38.258031    
     64200   300.33691     -4056.7961      0             -4030.4362     -62.795449    
     64300   308.11032     -4057.2761      0             -4030.234      -4.9812737    
     64400   312.28968     -4057.555       0             -4030.146       5.9240627    
     64500   288.40745     -4055.3891      0             -4030.0763      66.913078    
     64600   298.72802     -4056.1064      0             -4029.8877     -68.37679     
     64700   300.0235      -4056.2756      0             -4029.9432      127.57178    
     64800   303.01966     -4056.6993      0             -4030.104       4.7949998    
     64900   301.57118     -4056.7544      0             -4030.2862      93.591314    
     65000   311.38523     -4057.6706      0             -4030.341       34.844813    
     65100   283.9384      -4055.2736      0             -4030.353       31.329083    
     65200   305.6539      -4057.1208      0             -4030.2942     -78.533162    
     65300   313.87586     -4058.1605      0             -4030.6123     -13.980177    
     65400   303.79312     -4057.145       0             -4030.4818     -72.339402    
     65500   300.94728     -4056.7805      0             -4030.367      -130.48239    
     65600   297.79857     -4056.2529      0             -4030.1159      89.378248    
     65700   299.98356     -4056.6061      0             -4030.2773      15.018828    
     65800   299.85051     -4056.4807      0             -4030.1636      124.1969     
     65900   316.1182      -4058.1769      0             -4030.4319      69.865154    
     66000   307.65253     -4058.2398      0             -4031.2378     -51.720243    
     66100   304.67281     -4058.6208      0             -4031.8804     -5.3821446    
     66200   308.6778      -4059.2987      0             -4032.2068     -13.494587    
     66300   321.90241     -4060.8428      0             -4032.5902     -16.600416    
     66400   309.68007     -4060.1917      0             -4033.0118      51.978678    
     66500   284.1601      -4058.0108      0             -4033.0707     -12.624832    
     66600   309.90563     -4060.2094      0             -4033.0097      0.54745077   
     66700   306.49152     -4060.1824      0             -4033.2823     -19.056042    
     66800   311.85904     -4060.6837      0             -4033.3126     -10.683061    
     66900   282.23318     -4057.972       0             -4033.2011      10.5515      
     67000   296.36624     -4059.306       0             -4033.2947      48.668472    
     67100   298.124       -4059.6429      0             -4033.4773      78.591721    
     67200   298.69883     -4059.8404      0             -4033.6243      0.74462353   
     67300   309.91426     -4060.7354      0             -4033.535      -14.181261    
     67400   301.80026     -4059.8862      0             -4033.3979     -29.918009    
     67500   312.61288     -4060.8324      0             -4033.3951     -66.30262     
     67600   307.70262     -4060.5543      0             -4033.5479      15.769962    
     67700   303.28332     -4060.5118      0             -4033.8934      33.875336    
     67800   308.91562     -4061.3022      0             -4034.1894      0.28099432   
     67900   309.33276     -4061.4099      0             -4034.2605     -56.374848    
     68000   294.21162     -4060.1328      0             -4034.3105      16.061232    
     68100   299.36252     -4060.5423      0             -4034.2679     -8.0635122    
     68200   299.79224     -4060.7054      0             -4034.3934      3.3560298    
     68300   290.75408     -4059.9853      0             -4034.4665      19.399052    
     68400   317.02396     -4062.2799      0             -4034.4555     -7.9201085    
     68500   300.08489     -4060.7597      0             -4034.422       3.4701222    
     68600   321.17101     -4062.5748      0             -4034.3863      11.774283    
     68700   298.60188     -4060.683       0             -4034.4754      1.104205     
     68800   296.19581     -4060.4141      0             -4034.4176     -77.691111    
     68900   294.18959     -4060.229       0             -4034.4087     -27.63142     
     69000   295.88076     -4060.4634      0             -4034.4947      22.589374    
     69100   309.89094     -4061.5129      0             -4034.3145     -113.35282    
     69200   282.7731      -4059.0573      0             -4034.239       105.1745     
     69300   310.78001     -4061.4308      0             -4034.1544      91.448518    
     69400   304.50666     -4061.1871      0             -4034.4613      86.421647    
     69500   298.74642     -4060.7156      0             -4034.4954      17.554076    
     69600   292.31738     -4060.0934      0             -4034.4374     -23.496923    
     69700   303.38209     -4060.826       0             -4034.1989      4.6255411    
     69800   295.73329     -4060.0048      0             -4034.049       9.3899136    
     69900   299.83586     -4060.635       0             -4034.3192      41.583347    
     70000   298.54398     -4060.4734      0             -4034.2709     -29.519235    
     70100   299.98576     -4060.5924      0             -4034.2634     -3.8672112    
     70200   290.93583     -4059.6469      0             -4034.1122     -63.03607     
     70300   306.92662     -4060.8181      0             -4033.8798     -60.952974    
     70400   291.71599     -4059.585       0             -4033.9818     -4.4246337    
     70500   295.88619     -4060.1246      0             -4034.1554     -43.900459    
     70600   308.87222     -4061.5297      0             -4034.4207      14.402278    
     70700   304.70786     -4061.1247      0             -4034.3812     -69.224788    
     70800   309.52113     -4061.8249      0             -4034.6589      5.0930952    
     70900   299.23722     -4060.9425      0             -4034.6791     -48.877328    
     71000   288.52122     -4060.1614      0             -4034.8385     -17.542933    
     71100   301.72213     -4061.2594      0             -4034.778       127.78947    
     71200   283.68735     -4059.3245      0             -4034.4259      15.39246     
     71300   293.5867      -4060.1691      0             -4034.4017     -13.225156    
     71400   305.91209     -4061.1165      0             -4034.2673      78.114648    
     71500   306.69257     -4061.2775      0             -4034.3598      44.662281    
     71600   286.29767     -4059.4749      0             -4034.3472     -24.427668    
     71700   299.11329     -4060.5068      0             -4034.2544     -14.60139     
     71800   309.28075     -4061.3488      0             -4034.204      -29.09987     
     71900   294.0292      -4059.6665      0             -4033.8603     -69.331007    
     72000   312.79783     -4061.4834      0             -4034.0299     -37.333635    
     72100   290.40293     -4059.3027      0             -4033.8147      47.087159    
     72200   304.68667     -4060.4342      0             -4033.6926      5.8158138    
     72300   306.39136     -4060.3743      0             -4033.4831      82.971939    
     72400   311.46014     -4061.161       0             -4033.8249     -59.330759    
     72500   306.85954     -4061.0134      0             -4034.081      -29.446611    
     72600   295.48393     -4060.0952      0             -4034.1613      132.45146    
     72700   296.01459     -4059.8715      0             -4033.891       57.090132    
     72800   312.68261     -4061.2441      0             -4033.8007     -31.645831    
     72900   299.58191     -4060.3789      0             -4034.0853      19.594315    
     73000   335.27165     -4064.5179      0             -4035.0919      19.907474    
     73100   324.18288     -4065.1725      0             -4036.7198      15.043265    
     73200   305.09574     -4064.3079      0             -4037.5304     -29.942013    
     73300   329.85841     -4067.3968      0             -4038.446      -99.677656    
     73400   337.82102     -4069.0565      0             -4039.4068      97.489318    
     73500   319.90732     -4068.1168      0             -4040.0393     -85.707922    
     73600   299.68611     -4066.7849      0             -4040.4822     -115.5184     
     73700   316.14942     -4069.0968      0             -4041.3491     -17.218577    
     73800   337.03692     -4072.1857      0             -4042.6048      77.578533    
     73900   331.43324     -4072.6326      0             -4043.5435     -10.066679    
     74000   301.58499     -4070.6356      0             -4044.1662     -2.8547028    
     74100   304.49972     -4071.5339      0             -4044.8086     -2.4376058    
     74200   309.26647     -4072.5449      0             -4045.4013     -45.299991    
     74300   303.2565      -4072.348       0             -4045.7319     -109.15901    
     74400   313.04761     -4073.5145      0             -4046.039      -7.5790729    
     74500   309.10818     -4073.2839      0             -4046.1542      73.520137    
     74600   302.64104     -4072.8475      0             -4046.2854      8.7836814    
     74700   307.82811     -4073.5284      0             -4046.511       42.173422    
     74800   290.40537     -4072.2488      0             -4046.7606      10.384534    
     74900   296.00713     -4073.0946      0             -4047.1148      43.903181    
     75000   304.29146     -4073.7753      0             -4047.0683     -32.23968     
     75100   302.14421     -4073.5701      0             -4047.0516     -68.781771    
     75200   305.85429     -4073.9458      0             -4047.1017     -46.810985    
     75300   317.59762     -4075.1673      0             -4047.2925     -31.051347    
     75400   301.05872     -4073.7131      0             -4047.2899     -19.576016    
     75500   289.36917     -4072.5123      0             -4047.115      -32.544429    
     75600   285.15574     -4072.239       0             -4047.2115     -38.11261     
     75700   308.50075     -4074.2316      0             -4047.1552     -5.7587924    
     75800   312.13911     -4074.6581      0             -4047.2624      90.208917    
     75900   308.715       -4074.2617      0             -4047.1666      118.2065     
     76000   301.93854     -4073.6636      0             -4047.1632      45.116897    
     76100   306.62184     -4074.2508      0             -4047.3394      34.791412    
     76200   304.60318     -4074.1287      0             -4047.3944      71.381959    
     76300   294.45722     -4073.1181      0             -4047.2743      26.703527    
     76400   287.95354     -4072.3604      0             -4047.0874      59.283769    
     76500   308.74253     -4074.1589      0             -4047.0613      24.030732    
     76600   304.07727     -4073.8774      0             -4047.1892     -53.984713    
     76700   301.34329     -4073.8706      0             -4047.4224      133.22984    
     76800   300.21209     -4073.8062      0             -4047.4573     -2.7680166    
     76900   321.4171      -4075.6374      0             -4047.4274     -21.78098     
     77000   286.27332     -4072.5394      0             -4047.4138     -119.02726    
     77100   290.73623     -4072.9806      0             -4047.4634      0.68955602   
     77200   294.05671     -4073.1546      0             -4047.346      -30.006266    
     77300   300.54526     -4073.7344      0             -4047.3563      63.628696    
     77400   288.24424     -4072.447       0             -4047.1485      59.316058    
     77500   296.88266     -4073.1501      0             -4047.0934     -85.398811    
     77600   308.98732     -4074.2542      0             -4047.1351     -36.430664    
     77700   301.27784     -4073.5779      0             -4047.1354     -19.347736    
     77800   303.44507     -4073.8027      0             -4047.17       -55.154028    
     77900   304.11137     -4073.9246      0             -4047.2335     -20.208533    
     78000   318.62154     -4075.1189      0             -4047.1543     -23.632567    
     78100   296.11845     -4073.1677      0             -4047.1781      83.991346    
     78200   282.19618     -4072.0253      0             -4047.2576      51.978267    
     78300   291.05563     -4072.8632      0             -4047.3179      31.813168    
     78400   296.66527     -4073.3845      0             -4047.3469     -44.629524    
     78500   305.93599     -4074.2292      0             -4047.3779      3.8042265    
     78600   286.36606     -4072.4395      0             -4047.3059      60.697249    
     78700   305.38826     -4074.1761      0             -4047.3728     -81.140543    
     78800   298.57106     -4073.8333      0             -4047.6284     -103.05236    
     78900   305.04996     -4074.3677      0             -4047.5942      18.965232    
     79000   287.73351     -4072.7212      0             -4047.4675      27.871865    
     79100   298.81567     -4073.4392      0             -4047.2129     -35.435122    
     79200   314.64687     -4075.0615      0             -4047.4457     -1.3091855    
     79300   284.50178     -4072.4176      0             -4047.4475      3.9705525    
     79400   299.59356     -4073.6586      0             -4047.364       41.651917    
     79500   288.65783     -4072.5971      0             -4047.2622      1.2302732    
     79600   291.99838     -4072.7152      0             -4047.0872     -86.861757    
     79700   314.55852     -4074.8767      0             -4047.2687     -53.819106    
     79800   315.58699     -4075.1619      0             -4047.4636     -64.962058    
     79900   295.492       -4073.468       0             -4047.5333     -10.169293    
     80000   302.37156     -4074.2442      0             -4047.7058     -1.3174215    
     80100   293.69328     -4073.5731      0             -4047.7963      18.824682    
     80200   310.27251     -4075.2988      0             -4048.0669     -57.764639    
     80300   293.54863     -4073.9522      0             -4048.1881      26.616036    
     80400   308.71581     -4075.3927      0             -4048.2975      28.206274    
     80500   294.15131     -4074.2384      0             -4048.4214     -7.1169353    
     80600   299.85719     -4074.9919      0             -4048.6741     -55.631861    
     80700   302.78753     -4075.1786      0             -4048.6036     -0.79892167   
     80800   299.53058     -4074.8029      0             -4048.5138     -15.125669    
     80900   292.46814     -4073.8653      0             -4048.1961      43.150763    
     81000   309.19243     -4075.284       0             -4048.1469     -52.545628    
     81100   298.44117     -4074.1933      0             -4047.9998     -45.332264    
     81200   307.36098     -4074.9694      0             -4047.993       28.160724    
     81300   308.59757     -4075.1558      0             -4048.0709     -61.459401    
     81400   304.88766     -4074.943       0             -4048.1838      18.654862    
     81500   291.09829     -4073.6385      0             -4048.0895     -67.420087    
     81600   299.86508     -4074.4178      0             -4048.0993      38.92214     
     81700   301.73388     -4074.58        0             -4048.0975     -3.0842028    
     81800   310.03931     -4075.2703      0             -4048.0588      49.351591    
     81900   293.5763      -4073.7328      0             -4047.9663      49.192107    
     82000   290.92955     -4073.4542      0             -4047.92       -59.368768    
     82100   284.42607     -4072.6595      0             -4047.696      -16.394313    
     82200   299.85162     -4073.9992      0             -4047.6819      21.595806    
     82300   285.03756     -4072.9411      0             -4047.924       118.58857    
     82400   300.91886     -4074.3853      0             -4047.9744      101.07608    
     82500   289.8962      -4073.4448      0             -4048.0013     -66.11427     
     82600   285.81048     -4072.8937      0             -4047.8087     -0.51710757   
     82700   295.1733      -4073.5083      0             -4047.6017     -33.209484    
     82800   292.81351     -4073.1255      0             -4047.4259      72.170531    
     82900   303.40623     -4073.9826      0             -4047.3534      110.50845    
     83000   304.25143     -4073.998       0             -4047.2946     -30.908053    
     83100   303.97745     -4073.8866      0             -4047.2072     -85.920182    
     83200   314.84831     -4075.0027      0             -4047.3692      51.901906    
     83300   303.33656     -4073.9663      0             -4047.3432      29.708268    
     83400   300.2382      -4073.7613      0             -4047.4101     -74.617156    
     83500   285.51089     -4072.4216      0             -4047.363       72.389623    
     83600   293.96998     -4073.3243      0             -4047.5232     -62.64668     
     83700   295.45108     -4073.6048      0             -4047.6737      72.056867    
     83800   298.6079      -4073.9866      0             -4047.7785      52.728674    
     83900   304.61562     -4074.5465      0             -4047.8111     -38.198552    
     84000   309.28011     -4075.6461      0             -4048.5013      46.153739    
     84100   313.83257     -4076.8567      0             -4049.3123     -60.530693    
     84200   313.8409      -4077.3418      0             -4049.7967      27.572865    
     84300   309.01742     -4077.3707      0             -4050.249       85.811086    
     84400   311.22487     -4078.203       0             -4050.8876      93.559123    
     84500   307.01363     -4078.3404      0             -4051.3945     -20.512104    
     84600   297.63362     -4077.6751      0             -4051.5525      17.005755    
[...]
     89200   295.5304      -4078.1521      0             -4052.2141      74.624143    
     89300   291.69603     -4077.7122      0             -4052.1107     -38.088315    
     89400   294.70764     -4077.8221      0             -4051.9563      14.2678      
     89500   294.04105     -4077.6041      0             -4051.7968      64.783539    
     89600   292.74076     -4077.2488      0             -4051.5556      18.588894    
     89700   306.4692      -4079.0081      0             -4052.11       -7.9557395    
     89800   311.46115     -4077.8453      0             -4050.5091     -52.01119     
     89900   312.00648     -4078.0284      0             -4050.6444      14.050396    
     90000   307.27578     -4078.2802      0             -4051.3114     -24.094658    
     90100   315.31972     -4079.1857      0             -4051.5108      66.839748    
     90200   287.21571     -4076.9354      0             -4051.7272      57.981485    
     90300   309.42745     -4079.1473      0             -4051.9895      0.97549237   
     90400   314.92524     -4079.8344      0             -4052.1942     -99.697682    
     90500   296.81275     -4078.2827      0             -4052.2322      73.360553    
     90600   300.23408     -4078.6266      0             -4052.2758      57.313697    
     90700   301.39871     -4078.8629      0             -4052.4098      27.060661    
     90800   297.19001     -4078.4707      0             -4052.387       8.819763     
     90900   309.0808      -4079.5733      0             -4052.446       26.169726    
     91000   312.6436      -4080.0704      0             -4052.6304      59.787753    
     91100   298.65169     -4078.9481      0             -4052.7362     -88.261192    
     91200   297.2473      -4078.9033      0             -4052.8146      34.660035    
     91300   293.85027     -4078.4771      0             -4052.6865      13.466747    
     91400   301.86765     -4079.1251      0             -4052.6309      42.645789    
     91500   293.73484     -4078.138       0             -4052.3576     -2.6598329    
     91600   292.14215     -4077.9429      0             -4052.3023     -113.68997    
     91700   299.37278     -4078.5381      0             -4052.2629     -33.259832    
     91800   298.98845     -4078.6837      0             -4052.4422     -43.032045    
     91900   296.65441     -4078.5576      0             -4052.5209     -77.859683    
     92000   285.07054     -4077.4362      0             -4052.4163     -109.53089    
     92100   307.66689     -4079.6267      0             -4052.6235     -68.778433    
     92200   319.34943     -4080.9113      0             -4052.8827      74.360638    
     92300   312.32577     -4080.3328      0             -4052.9207     -40.901434    
     92400   309.86679     -4080.1001      0             -4052.9038     -32.125909    
     92500   300.24771     -4079.2277      0             -4052.8757     -47.05196     
     92600   309.2002      -4080.0791      0             -4052.9414      113.70118    
     92700   291.91639     -4078.5245      0             -4052.9036      50.154134    
     92800   288.30558     -4078.1016      0             -4052.7977     -33.979773    
     92900   305.02461     -4079.5309      0             -4052.7596      51.106551    
     93000   311.01564     -4080.0269      0             -4052.7298     -9.9490201    
     93100   298.00034     -4079.0089      0             -4052.8542     -11.166866    
     93200   286.44048     -4077.9815      0             -4052.8413     -18.423658    
     93300   279.24297     -4077.2028      0             -4052.6943     -18.905702    
     93400   306.9891      -4079.5228      0             -4052.5791      64.617386    
     93500   295.68022     -4078.436       0             -4052.4848     -68.1925      
     93600   305.2101      -4079.3028      0             -4052.5153     -48.522641    
     93700   308.97855     -4079.5934      0             -4052.4751     -67.720843    
     93800   306.01708     -4079.4102      0             -4052.5518      52.999818    
     93900   292.76959     -4078.5123      0             -4052.8167      0.40100174   
     94000   315.26447     -4080.7462      0             -4053.0762      93.19953     
     94100   296.19981     -4079.0126      0             -4053.0158      62.426575    
     94200   311.63704     -4080.5756      0             -4053.224       1.5791032    
     94300   303.76369     -4079.7541      0             -4053.0935      10.949865    
     94400   295.83255     -4078.8456      0             -4052.8811      44.759851    
     94500   299.81118     -4079.0946      0             -4052.7808      47.032794    
     94600   299.18684     -4079.0626      0             -4052.8036      85.965827    
     94700   300.09541     -4079.1898      0             -4052.8511     -43.807651    
     94800   308.27494     -4079.9575      0             -4052.901       31.313443    
     94900   310.70686     -4080.117       0             -4052.847      -32.935601    
     95000   303.02047     -4079.4203      0             -4052.8249     -61.423707    
     95100   296.6005      -4079.0277      0             -4052.9958     -15.369745    
     95200   320.55771     -4081.1264      0             -4052.9918     -52.562093    
     95300   288.41821     -4078.2798      0             -4052.9661     -101.74477    
     95400   297.77752     -4079.0681      0             -4052.9328     -45.418015    
     95500   304.67433     -4079.5907      0             -4052.8502     -5.3170445    
     95600   292.73447     -4078.4861      0             -4052.7934     -115.75186    
     95700   293.86798     -4078.4589      0             -4052.6668      36.436956    
     95800   298.27026     -4078.7175      0             -4052.539       31.434442    
     95900   290.35056     -4077.9081      0             -4052.4248      132.63256    
     96000   299.69605     -4078.6911      0             -4052.3875     -3.752812     
     96100   289.52202     -4077.9435      0             -4052.5328      50.634413    
     96200   298.71485     -4078.5047      0             -4052.2872      91.911426    
     96300   282.643       -4077.0842      0             -4052.2773      102.2668     
     96400   303.63256     -4079.0399      0             -4052.3908     -18.444618    
     96500   286.84386     -4077.4249      0             -4052.2493      25.356921    
     96600   300.41291     -4078.4992      0             -4052.1326     -39.961553    
     96700   283.05174     -4076.7808      0             -4051.938       15.437244    
     96800   295.93222     -4077.8101      0             -4051.8368     -25.852927    
     96900   290.04497     -4077.5067      0             -4052.0501     -154.18656    
     97000   296.33064     -4078.0888      0             -4052.0806      19.383474    
     97100   286.56185     -4077.3971      0             -4052.2463     -110.5916     
     97200   288.94759     -4077.5874      0             -4052.2272     -83.99406     
     97300   303.51103     -4079.0713      0             -4052.4328      66.250643    
     97400   302.48299     -4079.1462      0             -4052.598      -34.754468    
     97500   305.32843     -4079.5227      0             -4052.7248     -36.425384    
     97600   296.75302     -4078.7847      0             -4052.7394     -16.492838    
     97700   290.87103     -4078.3761      0             -4052.847      -29.44407     
     97800   289.99949     -4078.0386      0             -4052.5861      39.322523    
     97900   300.7483      -4079.0661      0             -4052.6702     -24.356403    
     98000   298.09036     -4078.8676      0             -4052.705      -63.230253    
     98100   300.08187     -4078.8959      0             -4052.5585     -13.733812    
     98200   296.2661      -4078.6545      0             -4052.6519     -14.981367    
     98300   298.72914     -4078.988       0             -4052.7693     -31.480067    
     98400   307.71889     -4079.9033      0             -4052.8955      74.317088    
     98500   285.34169     -4077.9122      0             -4052.8685     -66.539688    
     98600   276.82621     -4077.0576      0             -4052.7612     -45.846334    
     98700   318.72133     -4080.9878      0             -4053.0143     -128.99743    
     98800   301.70332     -4079.5904      0             -4053.1106      70.137129    
     98900   296.80509     -4079.0853      0             -4053.0354     -83.255324    
     99000   304.208       -4079.5569      0             -4052.8572     -154.51923    
     99100   298.67154     -4078.9981      0             -4052.7844      28.277551    
     99200   302.46693     -4079.3104      0             -4052.7636      8.2332209    
     99300   302.8886      -4079.2815      0             -4052.6977      25.06521     
     99400   311.35323     -4079.9606      0             -4052.6338      107.8733     
     99500   292.90327     -4078.1775      0             -4052.4701     -14.884341    
     99600   297.98356     -4078.4535      0             -4052.3002     -28.609021    
     99700   293.88291     -4077.9793      0             -4052.1859      2.3280589    
     99800   301.20338     -4078.5628      0             -4052.1268     -23.090545    
     99900   311.75189     -4079.5657      0             -4052.204       38.756059    
    100000   294.4085      -4078.1077      0             -4052.2682     -115.68722    
    100100   304.7605      -4078.9825      0             -4052.2344      11.321057    
    100200   294.82167     -4078.1614      0             -4052.2856      8.7681316    
    100300   315.56859     -4079.9468      0             -4052.2501      112.20269    
    100400   308.63974     -4079.5341      0             -4052.4456     -23.473181    
    100500   309.37245     -4079.5594      0             -4052.4066     -44.929653    
    100600   304.79079     -4079.0782      0             -4052.3275      46.853972    
    100700   280.65159     -4076.7732      0             -4052.1411     -68.855365    
    100800   310.28644     -4079.3671      0             -4052.134       30.37448     
    100900   293.10434     -4077.9692      0             -4052.2441      13.553655    
    101000   280.93969     -4076.9524      0             -4052.295       54.337865    
    101100   299.82971     -4078.6423      0             -4052.327      -82.153303    
    101200   286.12138     -4077.0925      0             -4051.9803      9.3148806    
    101300   318.38747     -4080.0081      0             -4052.064      -6.7212795    
    101400   300.79048     -4078.6458      0             -4052.2461     -65.720537    
    101500   311.91667     -4079.7692      0             -4052.393      -92.357372    
    101600   292.70724     -4078.013       0             -4052.3228      55.915004    
    101700   296.68076     -4078.3487      0             -4052.3097      3.8660178    
    101800   293.40056     -4077.8758      0             -4052.1247     -40.303686    
    101900   303.07351     -4078.6134      0             -4052.0134     -109.76539    
    102000   308.46246     -4079.0807      0             -4052.0077      15.936616    
    102100   288.21005     -4077.1372      0             -4051.8417     -20.674335    
    102200   315.89004     -4079.6693      0             -4051.9443      18.021966    
    102300   299.15048     -4078.3706      0             -4052.1149     -23.010225    
    102400   301.53961     -4078.636       0             -4052.1706      21.025776    
    102500   293.69026     -4077.8838      0             -4052.1073     -52.20317     
    102600   290.6597      -4077.6848      0             -4052.1743     -66.888861    
    102700   279.48197     -4076.5614      0             -4052.0319      72.130563    
    102800   299.53913     -4078.273       0             -4051.9831      85.137198    
    102900   301.46405     -4078.289       0             -4051.8302      43.80762     
    103000   305.8332      -4078.6206      0             -4051.7784      0.55624642   
    103100   284.72511     -4076.6824      0             -4051.6927      17.960214    
    103200   293.85202     -4077.5198      0             -4051.7291      51.840762    
    103300   295.18052     -4077.682       0             -4051.7747     -53.333276    
    103400   301.7796      -4078.44        0             -4051.9535      117.08413    
    103500   301.29557     -4078.5659      0             -4052.1219     -18.761785    
    103600   284.27692     -4077.0987      0             -4052.1484     -30.239175    
    103700   309.96792     -4079.4736      0             -4052.2684      10.867632    
    103800   302.05727     -4078.6989      0             -4052.188      -38.349575    
    103900   310.4343      -4079.3031      0             -4052.057      -1.5916935    
    104000   294.09127     -4077.8661      0             -4052.0544      19.534104    
    104100   313.385       -4079.5448      0             -4052.0397     -37.547221    
    104200   298.94753     -4078.3326      0             -4052.0947      16.366642    
    104300   283.32991     -4076.9545      0             -4052.0873     -42.854442    
    104400   307.15906     -4079.2443      0             -4052.2857      17.326225    
    104500   297.59143     -4078.4638      0             -4052.3449     -28.795118    
    104600   290.94069     -4078.0464      0             -4052.5112     -41.969432    
    104700   298.02994     -4078.6749      0             -4052.5175     -46.919404    
    104800   301.82257     -4078.9861      0             -4052.4959     -10.934767    
    104900   293.85613     -4078.2848      0             -4052.4937      9.3362934    
    105000   308.70179     -4079.7096      0             -4052.6156     -39.594026    
    105100   293.50021     -4078.4429      0             -4052.6831      52.977625    
    105200   302.23651     -4079.1344      0             -4052.6078     -114.5751     
    105300   299.85236     -4079.0907      0             -4052.7733      63.382097    
    105400   306.39643     -4079.7062      0             -4052.8145     -53.940937    
    105500   292.59871     -4078.4842      0             -4052.8035     -49.174464    
    105600   302.02904     -4079.3331      0             -4052.8247      44.965281    
    105700   297.06148     -4078.8213      0             -4052.7489     -12.033303    
    105800   297.87064     -4079.0351      0             -4052.8917      115.08557    
    105900   290.74183     -4078.3169      0             -4052.7992     -29.763885    
    106000   286.52192     -4077.7469      0             -4052.5996      42.56655     
    106100   298.08346     -4078.7842      0             -4052.6222      57.357205    
    106200   293.73453     -4078.5594      0             -4052.779      -70.143446    
    106300   295.7065      -4078.8315      0             -4052.8781      17.253991    
    106400   295.91308     -4078.7738      0             -4052.8022     -22.373492    
    106500   295.88267     -4078.6023      0             -4052.6334     -39.042192    
    106600   293.34024     -4078.2264      0             -4052.4806      13.068224    
    106700   302.31292     -4078.6899      0             -4052.1566      130.61476    
    106800   308.44963     -4079.2399      0             -4052.168      -94.471094    
    106900   292.951       -4077.8441      0             -4052.1325     -19.746722    
    107000   304.15911     -4078.9309      0             -4052.2356     -77.441919    
    107100   267.24071     -4075.6755      0             -4052.2204     -50.064887    
    107200   300.87043     -4078.4298      0             -4052.0231     -14.588       
    107300   300.93098     -4078.518       0             -4052.106      -71.999023    
    107400   300.41512     -4078.2601      0             -4051.8934      36.228841    
    107500   307.46276     -4078.9368      0             -4051.9515      34.464749    
    107600   308.6224      -4079.1156      0             -4052.0285     -20.107858    
    107700   292.10367     -4077.6595      0             -4052.0222     -28.138441    
    107800   293.70468     -4077.7679      0             -4051.9901      3.3976587    
    107900   303.45593     -4078.6588      0             -4052.0252     -4.6900603    
    108000   297.22697     -4078.2         0             -4052.1131      91.647587    
    108100   307.13912     -4078.9595      0             -4052.0026     -88.010752    
    108200   308.74154     -4079.2017      0             -4052.1042     -83.050475    
    108300   292.82193     -4077.8265      0             -4052.1262     -72.441656    
    108400   312.66826     -4079.8571      0             -4052.415      -6.5237707    
    108500   295.124       -4078.7159      0             -4052.8136      1.4298049    
    108600   305.07606     -4079.8071      0             -4053.0313      41.199744    
    108700   301.87204     -4079.549       0             -4053.0545     -73.649239    
    108800   305.07927     -4079.6788      0             -4052.9027     -24.821819    
    108900   302.88374     -4079.6057      0             -4053.0223      24.875309    
    109000   299.61249     -4079.1985      0             -4052.9022      70.620961    
    109100   308.97366     -4079.9729      0             -4052.8551      48.678108    
    109200   301.16023     -4079.199       0             -4052.7669     -21.66561     
    109300   292.26595     -4078.1435      0             -4052.492       133.88284    
    109400   302.86836     -4078.906       0             -4052.3239      69.094082    
    109500   289.41336     -4077.8895      0             -4052.4884     -105.55987    
    109600   301.32046     -4079.1903      0             -4052.7442      27.445317    
    109700   300.68651     -4079.0458      0             -4052.6553      49.203299    
    109800   298.99243     -4079.1591      0             -4052.9173      10.564971    
    109900   293.35652     -4078.2781      0             -4052.5309     -33.017513    
    110000   294.74633     -4078.3662      0             -4052.497      -12.077436    
    110100   295.74997     -4078.4635      0             -4052.5062     -65.73031     
    110200   293.76004     -4078.157       0             -4052.3744     -94.112834    
    110300   305.515       -4079.0053      0             -4052.191      -58.548957    
    110400   299.87991     -4078.5712      0             -4052.2514      26.099314    
    110500   301.25882     -4078.7026      0             -4052.2618     -66.689852    
    110600   302.60793     -4078.7724      0             -4052.2132      103.51682    
    110700   279.2821      -4076.6116      0             -4052.0997      41.006728    
    110800   289.3752      -4077.6688      0             -4052.271       66.798906    
    110900   304.12487     -4078.8711      0             -4052.1788      35.537922    
    111000   293.16914     -4077.748       0             -4052.0172      36.648532    
    111100   290.70042     -4077.3903      0             -4051.8762      30.027912    
    111200   297.45698     -4077.7263      0             -4051.6192      37.714516    
    111300   303.14664     -4078.03        0             -4051.4236     -61.315086    
    111400   309.71103     -4078.7585      0             -4051.5759      17.379276    
    111500   308.52639     -4078.8249      0             -4051.7463     -64.993267    
    111600   297.28468     -4078.078       0             -4051.9861     -115.2885     
    111700   308.06878     -4079.27        0             -4052.2316     -31.113882    
    111800   305.48454     -4079.2496      0             -4052.4379     -47.02447     
    111900   290.59096     -4077.7922      0             -4052.2878     -1.4873101    
    112000   303.36584     -4079.0295      0             -4052.4038      25.27        
    11210